Th    ONCVPSP-4.0.1  r_core=   1.20498   1.25651   1.20498   1.40776
90.0000     30.0000      220309    zatom,zion,pspd
8      11   3     4   600     0    pspcod,pspxc,lmax,lloc,mmax,r2well
5.99000000  5.00000000  0.00000000    rchrg fchrg qchrg
3     2     2     2     0    nproj
1     1           extension_switch
0                         2.9553915638296E+01  4.0516661300024E+00 -8.3071269615951E-01
1  0.0000000000000E+00 -2.3788709402339E-07  6.4023770629529E-07  2.8735222645793E-08
2  1.0000000000000E-02  1.6504826593141E-01 -1.2932582434268E-01  1.2908193114427E-02
3  2.0000000000000E-02  3.2809797222951E-01 -2.5437399468501E-01  2.5973402617861E-02
4  3.0000000000000E-02  4.8720468778490E-01 -3.7100901666252E-01  3.9345301380691E-02
5  4.0000000000000E-02  6.4053039766520E-01 -4.7537475721063E-01  5.3159124940667E-02
6  5.0000000000000E-02  7.8639217418614E-01 -5.6402190559084E-01  6.7529069340244E-02
7  6.0000000000000E-02  9.2330558368428E-01 -6.3402125549415E-01  8.2542407280121E-02
8  7.0000000000000E-02  1.0500213675385E+00 -6.8305887115375E-01  9.8254526908267E-02
9  8.0000000000000E-02  1.1655541738745E+00 -7.0950984063702E-01  1.1468506882848E-01
10  9.0000000000000E-02  1.2692023974151E+00 -7.1248807600056E-01  1.3181530265407E-01
11  1.0000000000000E-01  1.3605584990799E+00 -6.9187046589851E-01  1.4958684568561E-01
12  1.1000000000000E-01  1.4395095130013E+00 -6.4829459149256E-01  1.6790178422706E-01
13  1.2000000000000E-01  1.5062277946194E+00 -5.8313014897641E-01  1.8662421394630E-01
14  1.3000000000000E-01  1.5611524071252E+00 -4.9842514859871E-01  2.0558317086993E-01
15  1.4000000000000E-01  1.6049618724996E+00 -3.9682884788077E-01  2.2457688044096E-01
16  1.5000000000000E-01  1.6385393160402E+00 -2.8149419430241E-01  2.4337820990582E-01
17  1.6000000000000E-01  1.6629312988115E+00 -1.5596327111987E-01  2.6174117042267E-01
18  1.7000000000000E-01  1.6793018514764E+00 -2.4039833773202E-02  2.7940828088995E-01
19  1.8000000000000E-01  1.6888833877040E+00  1.1034652740501E-01  2.9611857664346E-01
20  1.9000000000000E-01  1.6929262799842E+00  2.4327977552157E-01  3.1161602376170E-01
21  2.0000000000000E-01  1.6926489215622E+00  3.7099542818484E-01  3.2565808446020E-01
22  2.1000000000000E-01  1.6891900739459E+00  4.9001229252846E-01  3.3802417144112E-01
23  2.2000000000000E-01  1.6835652109991E+00  5.9725328780987E-01  3.4852372936364E-01
24  2.3000000000000E-01  1.6766284212551E+00  6.9015110591219E-01  3.5700368984156E-01
25  2.4000000000000E-01  1.6690412251960E+00  7.6673500678461E-01  3.6335506235217E-01
26  2.5000000000000E-01  1.6612494112482E+00  8.2569572287349E-01  3.6751844671029E-01
27  2.6000000000000E-01  1.6534687022589E+00  8.6642622964315E-01  3.6948828266292E-01
28  2.7000000000000E-01  1.6456797437507E+00  8.8903700032368E-01  3.6931568782764E-01
29  2.8000000000000E-01  1.6376325678013E+00  8.9434527128885E-01  3.6710977558887E-01
30  2.9000000000000E-01  1.6288603440713E+00  8.8383876756198E-01  3.6303738849234E-01
31  3.0000000000000E-01  1.6187018945494E+00  8.5961524300834E-01  3.5732122883772E-01
32  3.1000000000000E-01  1.6063321329864E+00  8.2430004463532E-01  3.5023641518807E-01
33  3.2000000000000E-01  1.5907993049794E+00  7.8094468480555E-01  3.4210553998507E-01
34  3.3000000000000E-01  1.5710676604071E+00  7.3291007169906E-01  3.3329234798285E-01
35  3.4000000000000E-01  1.5460639950374E+00  6.8373858363230E-01  3.2419419644423E-01
36  3.5000000000000E-01  1.5147263595049E+00  6.3701955814465E-01  3.1523349472564E-01
37  3.6000000000000E-01  1.4760531563062E+00  5.9625298885973E-01  3.0684835188770E-01
38  3.7000000000000E-01  1.4291508316153E+00  5.6471627459576E-01  2.9948268534624E-01
39  3.8000000000000E-01  1.3732784188948E+00  5.4533874480357E-01  2.9357606055819E-01
40  3.9000000000000E-01  1.3078873035027E+00  5.4058839802611E-01  2.8955354077284E-01
41  4.0000000000000E-01  1.2326547475651E+00  5.5237484656921E-01  2.8781582665856E-01
42  4.1000000000000E-01  1.1475099360359E+00  5.8197187736050E-01  2.8872995807796E-01
43  4.2000000000000E-01  1.0526515699882E+00  6.2996233740891E-01  2.9262083461516E-01
44  4.3000000000000E-01  9.4855633215006E-01  6.9620725788736E-01  2.9976378809444E-01
45  4.4000000000000E-01  8.3597787167877E-01  7.7984027237219E-01  3.1037840993638E-01
46  4.5000000000000E-01  7.1593628856773E-01  8.7928749310691E-01  3.2462379966325E-01
47  4.6000000000000E-01  5.8969843092813E-01  9.9231211626265E-01  3.4259535926587E-01
48  4.7000000000000E-01  4.5874963879617E-01  1.1160821648763E+00  3.6432321271553E-01
49  4.8000000000000E-01  3.2475786469947E-01  1.2472589770352E+00  3.8977228200789E-01
50  4.9000000000000E-01  1.8953136351542E-01  1.3821033351165E+00  4.1884400220355E-01
51  5.0000000000000E-01  5.4971362997516E-02  1.5165955342996E+00  4.5137960946528E-01
52  5.1000000000000E-01 -7.6978705808417E-02  1.6465652256741E+00  4.8716488956483E-01
53  5.2000000000000E-01 -2.0438572783501E-01  1.7678265565978E+00  5.2593623116905E-01
54  5.3000000000000E-01 -3.2537943154177E-01  1.8763139785389E+00  5.6738778975441E-01
55  5.4000000000000E-01 -4.3820319390995E-01  1.9682141045774E+00  6.1117953543846E-01
56  5.5000000000000E-01 -5.4126146331693E-01  2.0400891732413E+00  6.5694593238716E-01
57  5.6000000000000E-01 -6.3316226958544E-01  2.0889880046700E+00  7.0430497957921E-01
58  5.7000000000000E-01 -7.1275347182095E-01  2.1125408060084E+00  7.5286733317575E-01
59  5.8000000000000E-01 -7.7915162140586E-01  2.1090347771414E+00  8.0224522989324E-01
60  5.9000000000000E-01 -8.3176258111214E-01  2.0774681628196E+00  8.5206093868571E-01
61  6.0000000000000E-01 -8.7029333185708E-01  2.0175811668568E+00  9.0195448451555E-01
62  6.1000000000000E-01 -8.9475470541077E-01  1.9298629599354E+00  9.5159041256880E-01
63  6.2000000000000E-01 -9.0545509313573E-01  1.8155348447565E+00  1.0006633932419E+00
64  6.3000000000000E-01 -9.0298548631052E-01  1.6765104607026E+00  1.0489025066420E+00
65  6.4000000000000E-01 -8.8819649182981E-01  1.5153346855593E+00  1.0960740890506E+00
66  6.5000000000000E-01 -8.6216822791824E-01  1.3351035968180E+00  1.1419830714727E+00
67  6.6000000000000E-01 -8.2617422892609E-01  1.1393684652642E+00  1.1864727905657E+00
68  6.7000000000000E-01 -7.8164066871116E-01  9.3202724829171E-01  1.2294233033690E+00
69  6.8000000000000E-01 -7.3010234273693E-01  7.1720741363524E-01  1.2707482877245E+00
70  6.9000000000000E-01 -6.7315692591538E-01  4.9914414495896E-01  1.3103906585157E+00
71  7.0000000000000E-01 -6.1241904455030E-01  2.8205805341562E-01  1.3483170743002E+00
72  7.1000000000000E-01 -5.4947566673542E-01  7.0036443894988E-02  1.3845115481405E+00
73  7.2000000000000E-01 -4.8584422855213E-01 -1.3307803326971E-01  1.4189684091515E+00
74  7.3000000000000E-01 -4.2293477764254E-01 -3.2378786418034E-01  1.4516848863754E+00
75  7.4000000000000E-01 -3.6201723722103E-01 -4.9902727210978E-01  1.4826536031779E+00
76  7.5000000000000E-01 -3.0419467987414E-01 -6.5623248542652E-01  1.5118552778104E+00
77  7.6000000000000E-01 -2.5038326026569E-01 -7.9339385821938E-01  1.5392519237273E+00
78  7.7000000000000E-01 -2.0129919870033E-01 -9.0908871519119E-01  1.5647808316356E+00
79  7.8000000000000E-01 -1.5745294340838E-01 -1.0024945008543E+00  1.5883495942809E+00
80  7.9000000000000E-01 -1.1915037849047E-01 -1.0733825170870E+00  1.6098324051762E+00
81  8.0000000000000E-01 -8.6500696445144E-02 -1.1220932066399E+00  1.6290678246233E+00
82  8.1000000000000E-01 -5.9430328177448E-02 -1.1494945587781E+00  1.6458581615136E+00
83  8.2000000000000E-01 -3.7702127350609E-02 -1.1569257552125E+00  1.6599705687886E+00
84  8.3000000000000E-01 -2.0938846581596E-02 -1.1461286214798E+00  1.6711398955556E+00
85  8.4000000000000E-01 -8.6498253930770E-03 -1.1191697867546E+00  1.6790732812894E+00
86  8.5000000000000E-01 -2.5973737279137E-04 -1.0783566740399E+00  1.6834564190231E+00
87  8.6000000000000E-01  4.8617818423739E-03 -1.0261505379638E+00  1.6839613567064E+00
88  8.7000000000000E-01  7.3707837214542E-03 -9.6507973912671E-01  1.6802556507408E+00
89  8.8000000000000E-01  7.9210266188731E-03 -8.9765629703248E-01  1.6720126348194E+00
90  8.9000000000000E-01  7.1383550260658E-03 -8.2629850757986E-01  1.6589225222022E+00
91  9.0000000000000E-01  5.5982877486953E-03 -7.5326205940447E-01  1.6407040219266E+00
92  9.1000000000000E-01  3.8074969807412E-03 -6.8058165299327E-01  1.6171161204531E+00
93  9.2000000000000E-01  2.1896723021361E-03 -6.1002463703242E-01  1.5879696609331E+00
94  9.3000000000000E-01  1.0760634723999E-03 -5.4305764926453E-01  1.5531383434461E+00
95  9.4000000000000E-01  7.0079209099748E-04 -4.8082670655871E-01  1.5125687716936E+00
96  9.5000000000000E-01  1.2008231546466E-03 -4.2415065301592E-01  1.4662891849779E+00
97  9.6000000000000E-01  2.6203013154241E-03 -3.7352736704433E-01  1.4144165387330E+00
98  9.7000000000000E-01  4.9187904853262E-03 -3.2915166780198E-01  1.3571616320374E+00
99  9.8000000000000E-01  7.9828155138266E-03 -2.9094346485776E-01  1.2948320257486E+00
100  9.9000000000000E-01  1.1639995930693E-02 -2.5858437595682E-01  1.2278325491759E+00
101  1.0000000000000E+00  1.5674987496738E-02 -2.3156080570227E-01  1.1566632554442E+00
102  1.0100000000000E+00  1.9846409455939E-02 -2.0921133864684E-01  1.0819147544248E+00
103  1.0200000000000E+00  2.3903933899665E-02 -1.9077625448179E-01  1.0042609257809E+00
104  1.0300000000000E+00  2.7604746997247E-02 -1.7544701757526E-01  9.2444909163449E-01
105  1.0400000000000E+00  3.0728656927184E-02 -1.6241372087615E-01  8.4328780683913E-01
106  1.0500000000000E+00  3.3091215315737E-02 -1.5090866344621E-01  7.6163250294058E-01
107  1.0600000000000E+00  3.4554332181408E-02 -1.4024449755281E-01  6.8036929799826E-01
108  1.0700000000000E+00  3.5033991828186E-02 -1.2984567800044E-01  6.0039735669825E-01
109  1.0800000000000E+00  3.4504810840126E-02 -1.1927226308879E-01  5.2261025189676E-01
110  1.0900000000000E+00  3.3001311991232E-02 -1.0823543463609E-01  4.4787683872756E-01
111  1.1000000000000E+00  3.0615910237942E-02 -9.6604400446787E-02  3.7702220393124E-01
112  1.1100000000000E+00  2.7493712068888E-02 -8.4404598506635E-02  3.1080929548298E-01
113  1.1200000000000E+00  2.3824309003749E-02 -7.1807316710859E-02  2.4992186969504E-01
114  1.1300000000000E+00  1.9830674266649E-02 -5.9110680473965E-02  1.9494935140844E-01
115  1.1400000000000E+00  1.5756424278596E-02 -4.6714640685428E-02  1.4637481110038E-01
116  1.1500000000000E+00  1.1807512020427E-02 -3.4986820701399E-02  1.0454322937903E-01
117  1.1600000000000E+00  8.0611652955473E-03 -2.4046563562601E-02  6.9616154313012E-02
118  1.1700000000000E+00  4.8286314833484E-03 -1.4612658939290E-02  4.1776260722213E-02
119  1.1800000000000E+00  2.3579783372490E-03 -7.3043043546895E-03  2.1087875211094E-02
120  1.1900000000000E+00  7.7831326551700E-04 -2.4982912992199E-03  7.4916800348238E-03
121  1.2000000000000E+00  7.9028087317947E-05 -2.6836458986750E-04  8.6940059169429E-04
122  1.2100000000000E+00 -4.3633333850123E-06  1.5569622381982E-05 -5.3559240910305E-05
123  1.2200000000000E+00 -1.1029611316271E-07  3.6908477048318E-07 -1.1685699105303E-06
124  1.23 -0. -0. -0.
125  1.24  0.  0.  0.
126  1.25  0.  0.  0.
127  1.26  0.  0.  0.
128  1.27  0.  0.  0.
129  1.28  0.  0.  0.
130  1.29  0.  0.  0.
131  1.30  0.  0.  0.
132  1.31  0.  0.  0.
133  1.32  0.  0.  0.
134  1.33  0.  0.  0.
135  1.34  0.  0.  0.
136  1.35  0.  0.  0.
137  1.36  0.  0.  0.
138  1.37  0.  0.  0.
139  1.38  0.  0.  0.
140  1.39  0.  0.  0.
141  1.40  0.  0.  0.
142  1.41  0.  0.  0.
143  1.42  0.  0.  0.
144  1.43  0.  0.  0.
145  1.44  0.  0.  0.
146  1.45  0.  0.  0.
147  1.46  0.  0.  0.
148  1.47  0.  0.  0.
149  1.48  0.  0.  0.
150  1.49  0.  0.  0.
151  1.50  0.  0.  0.
152  1.51  0.  0.  0.
153  1.52  0.  0.  0.
154  1.53  0.  0.  0.
155  1.54  0.  0.  0.
156  1.55  0.  0.  0.
157  1.56  0.  0.  0.
158  1.57  0.  0.  0.
159  1.58  0.  0.  0.
160  1.59  0.  0.  0.
161  1.60  0.  0.  0.
162  1.61  0.  0.  0.
163  1.62  0.  0.  0.
164  1.63  0.  0.  0.
165  1.64  0.  0.  0.
166  1.65  0.  0.  0.
167  1.66  0.  0.  0.
168  1.67  0.  0.  0.
169  1.68  0.  0.  0.
170  1.69  0.  0.  0.
171  1.70  0.  0.  0.
172  1.71  0.  0.  0.
173  1.72  0.  0.  0.
174  1.73  0.  0.  0.
175  1.74  0.  0.  0.
176  1.75  0.  0.  0.
177  1.76  0.  0.  0.
178  1.77  0.  0.  0.
179  1.78  0.  0.  0.
180  1.79  0.  0.  0.
181  1.80  0.  0.  0.
182  1.81  0.  0.  0.
183  1.82  0.  0.  0.
184  1.83  0.  0.  0.
185  1.84  0.  0.  0.
186  1.85  0.  0.  0.
187  1.86  0.  0.  0.
188  1.87  0.  0.  0.
189  1.88  0.  0.  0.
190  1.89  0.  0.  0.
191  1.90  0.  0.  0.
192  1.91  0.  0.  0.
193  1.92  0.  0.  0.
194  1.93  0.  0.  0.
195  1.94  0.  0.  0.
196  1.95  0.  0.  0.
197  1.96  0.  0.  0.
198  1.97  0.  0.  0.
199  1.98  0.  0.  0.
200  1.99  0.  0.  0.
201  2.00  0.  0.  0.
202  2.01  0.  0.  0.
203  2.02  0.  0.  0.
204  2.03  0.  0.  0.
205  2.04  0.  0.  0.
206  2.05  0.  0.  0.
207  2.06  0.  0.  0.
208  2.07  0.  0.  0.
209  2.08  0.  0.  0.
210  2.09  0.  0.  0.
211  2.10  0.  0.  0.
212  2.11  0.  0.  0.
213  2.12  0.  0.  0.
214  2.13  0.  0.  0.
215  2.14  0.  0.  0.
216  2.15  0.  0.  0.
217  2.16  0.  0.  0.
218  2.17  0.  0.  0.
219  2.18  0.  0.  0.
220  2.19  0.  0.  0.
221  2.20  0.  0.  0.
222  2.21  0.  0.  0.
223  2.22  0.  0.  0.
224  2.23  0.  0.  0.
225  2.24  0.  0.  0.
226  2.25  0.  0.  0.
227  2.26  0.  0.  0.
228  2.27  0.  0.  0.
229  2.28  0.  0.  0.
230  2.29  0.  0.  0.
231  2.30  0.  0.  0.
232  2.31  0.  0.  0.
233  2.32  0.  0.  0.
234  2.33  0.  0.  0.
235  2.34  0.  0.  0.
236  2.35  0.  0.  0.
237  2.36  0.  0.  0.
238  2.37  0.  0.  0.
239  2.38  0.  0.  0.
240  2.39  0.  0.  0.
241  2.40  0.  0.  0.
242  2.41  0.  0.  0.
243  2.42  0.  0.  0.
244  2.43  0.  0.  0.
245  2.44  0.  0.  0.
246  2.45  0.  0.  0.
247  2.46  0.  0.  0.
248  2.47  0.  0.  0.
249  2.48  0.  0.  0.
250  2.49  0.  0.  0.
251  2.50  0.  0.  0.
252  2.51  0.  0.  0.
253  2.52  0.  0.  0.
254  2.53  0.  0.  0.
255  2.54  0.  0.  0.
256  2.55  0.  0.  0.
257  2.56  0.  0.  0.
258  2.57  0.  0.  0.
259  2.58  0.  0.  0.
260  2.59  0.  0.  0.
261  2.60  0.  0.  0.
262  2.61  0.  0.  0.
263  2.62  0.  0.  0.
264  2.63  0.  0.  0.
265  2.64  0.  0.  0.
266  2.65  0.  0.  0.
267  2.66  0.  0.  0.
268  2.67  0.  0.  0.
269  2.68  0.  0.  0.
270  2.69  0.  0.  0.
271  2.70  0.  0.  0.
272  2.71  0.  0.  0.
273  2.72  0.  0.  0.
274  2.73  0.  0.  0.
275  2.74  0.  0.  0.
276  2.75  0.  0.  0.
277  2.76  0.  0.  0.
278  2.77  0.  0.  0.
279  2.78  0.  0.  0.
280  2.79  0.  0.  0.
281  2.80  0.  0.  0.
282  2.81  0.  0.  0.
283  2.82  0.  0.  0.
284  2.83  0.  0.  0.
285  2.84  0.  0.  0.
286  2.85  0.  0.  0.
287  2.86  0.  0.  0.
288  2.87  0.  0.  0.
289  2.88  0.  0.  0.
290  2.89  0.  0.  0.
291  2.90  0.  0.  0.
292  2.91  0.  0.  0.
293  2.92  0.  0.  0.
294  2.93  0.  0.  0.
295  2.94  0.  0.  0.
296  2.95  0.  0.  0.
297  2.96  0.  0.  0.
298  2.97  0.  0.  0.
299  2.98  0.  0.  0.
300  2.99  0.  0.  0.
301  3.00  0.  0.  0.
302  3.01  0.  0.  0.
303  3.02  0.  0.  0.
304  3.03  0.  0.  0.
305  3.04  0.  0.  0.
306  3.05  0.  0.  0.
307  3.06  0.  0.  0.
308  3.07  0.  0.  0.
309  3.08  0.  0.  0.
310  3.09  0.  0.  0.
311  3.10  0.  0.  0.
312  3.11  0.  0.  0.
313  3.12  0.  0.  0.
314  3.13  0.  0.  0.
315  3.14  0.  0.  0.
316  3.15  0.  0.  0.
317  3.16  0.  0.  0.
318  3.17  0.  0.  0.
319  3.18  0.  0.  0.
320  3.19  0.  0.  0.
321  3.20  0.  0.  0.
322  3.21  0.  0.  0.
323  3.22  0.  0.  0.
324  3.23  0.  0.  0.
325  3.24  0.  0.  0.
326  3.25  0.  0.  0.
327  3.26  0.  0.  0.
328  3.27  0.  0.  0.
329  3.28  0.  0.  0.
330  3.29  0.  0.  0.
331  3.30  0.  0.  0.
332  3.31  0.  0.  0.
333  3.32  0.  0.  0.
334  3.33  0.  0.  0.
335  3.34  0.  0.  0.
336  3.35  0.  0.  0.
337  3.36  0.  0.  0.
338  3.37  0.  0.  0.
339  3.38  0.  0.  0.
340  3.39  0.  0.  0.
341  3.40  0.  0.  0.
342  3.41  0.  0.  0.
343  3.42  0.  0.  0.
344  3.43  0.  0.  0.
345  3.44  0.  0.  0.
346  3.45  0.  0.  0.
347  3.46  0.  0.  0.
348  3.47  0.  0.  0.
349  3.48  0.  0.  0.
350  3.49  0.  0.  0.
351  3.50  0.  0.  0.
352  3.51  0.  0.  0.
353  3.52  0.  0.  0.
354  3.53  0.  0.  0.
355  3.54  0.  0.  0.
356  3.55  0.  0.  0.
357  3.56  0.  0.  0.
358  3.57  0.  0.  0.
359  3.58  0.  0.  0.
360  3.59  0.  0.  0.
361  3.60  0.  0.  0.
362  3.61  0.  0.  0.
363  3.62  0.  0.  0.
364  3.63  0.  0.  0.
365  3.64  0.  0.  0.
366  3.65  0.  0.  0.
367  3.66  0.  0.  0.
368  3.67  0.  0.  0.
369  3.68  0.  0.  0.
370  3.69  0.  0.  0.
371  3.70  0.  0.  0.
372  3.71  0.  0.  0.
373  3.72  0.  0.  0.
374  3.73  0.  0.  0.
375  3.74  0.  0.  0.
376  3.75  0.  0.  0.
377  3.76  0.  0.  0.
378  3.77  0.  0.  0.
379  3.78  0.  0.  0.
380  3.79  0.  0.  0.
381  3.80  0.  0.  0.
382  3.81  0.  0.  0.
383  3.82  0.  0.  0.
384  3.83  0.  0.  0.
385  3.84  0.  0.  0.
386  3.85  0.  0.  0.
387  3.86  0.  0.  0.
388  3.87  0.  0.  0.
389  3.88  0.  0.  0.
390  3.89  0.  0.  0.
391  3.90  0.  0.  0.
392  3.91  0.  0.  0.
393  3.92  0.  0.  0.
394  3.93  0.  0.  0.
395  3.94  0.  0.  0.
396  3.95  0.  0.  0.
397  3.96  0.  0.  0.
398  3.97  0.  0.  0.
399  3.98  0.  0.  0.
400  3.99  0.  0.  0.
401  4.00  0.  0.  0.
402  4.01  0.  0.  0.
403  4.02  0.  0.  0.
404  4.03  0.  0.  0.
405  4.04  0.  0.  0.
406  4.05  0.  0.  0.
407  4.06  0.  0.  0.
408  4.07  0.  0.  0.
409  4.08  0.  0.  0.
410  4.09  0.  0.  0.
411  4.10  0.  0.  0.
412  4.11  0.  0.  0.
413  4.12  0.  0.  0.
414  4.13  0.  0.  0.
415  4.14  0.  0.  0.
416  4.15  0.  0.  0.
417  4.16  0.  0.  0.
418  4.17  0.  0.  0.
419  4.18  0.  0.  0.
420  4.19  0.  0.  0.
421  4.20  0.  0.  0.
422  4.21  0.  0.  0.
423  4.22  0.  0.  0.
424  4.23  0.  0.  0.
425  4.24  0.  0.  0.
426  4.25  0.  0.  0.
427  4.26  0.  0.  0.
428  4.27  0.  0.  0.
429  4.28  0.  0.  0.
430  4.29  0.  0.  0.
431  4.30  0.  0.  0.
432  4.31  0.  0.  0.
433  4.32  0.  0.  0.
434  4.33  0.  0.  0.
435  4.34  0.  0.  0.
436  4.35  0.  0.  0.
437  4.36  0.  0.  0.
438  4.37  0.  0.  0.
439  4.38  0.  0.  0.
440  4.39  0.  0.  0.
441  4.40  0.  0.  0.
442  4.41  0.  0.  0.
443  4.42  0.  0.  0.
444  4.43  0.  0.  0.
445  4.44  0.  0.  0.
446  4.45  0.  0.  0.
447  4.46  0.  0.  0.
448  4.47  0.  0.  0.
449  4.48  0.  0.  0.
450  4.49  0.  0.  0.
451  4.50  0.  0.  0.
452  4.51  0.  0.  0.
453  4.52  0.  0.  0.
454  4.53  0.  0.  0.
455  4.54  0.  0.  0.
456  4.55  0.  0.  0.
457  4.56  0.  0.  0.
458  4.57  0.  0.  0.
459  4.58  0.  0.  0.
460  4.59  0.  0.  0.
461  4.60  0.  0.  0.
462  4.61  0.  0.  0.
463  4.62  0.  0.  0.
464  4.63  0.  0.  0.
465  4.64  0.  0.  0.
466  4.65  0.  0.  0.
467  4.66  0.  0.  0.
468  4.67  0.  0.  0.
469  4.68  0.  0.  0.
470  4.69  0.  0.  0.
471  4.70  0.  0.  0.
472  4.71  0.  0.  0.
473  4.72  0.  0.  0.
474  4.73  0.  0.  0.
475  4.74  0.  0.  0.
476  4.75  0.  0.  0.
477  4.76  0.  0.  0.
478  4.77  0.  0.  0.
479  4.78  0.  0.  0.
480  4.79  0.  0.  0.
481  4.80  0.  0.  0.
482  4.81  0.  0.  0.
483  4.82  0.  0.  0.
484  4.83  0.  0.  0.
485  4.84  0.  0.  0.
486  4.85  0.  0.  0.
487  4.86  0.  0.  0.
488  4.87  0.  0.  0.
489  4.88  0.  0.  0.
490  4.89  0.  0.  0.
491  4.90  0.  0.  0.
492  4.91  0.  0.  0.
493  4.92  0.  0.  0.
494  4.93  0.  0.  0.
495  4.94  0.  0.  0.
496  4.95  0.  0.  0.
497  4.96  0.  0.  0.
498  4.97  0.  0.  0.
499  4.98  0.  0.  0.
500  4.99  0.  0.  0.
501  5.00  0.  0.  0.
502  5.01  0.  0.  0.
503  5.02  0.  0.  0.
504  5.03  0.  0.  0.
505  5.04  0.  0.  0.
506  5.05  0.  0.  0.
507  5.06  0.  0.  0.
508  5.07  0.  0.  0.
509  5.08  0.  0.  0.
510  5.09  0.  0.  0.
511  5.10  0.  0.  0.
512  5.11  0.  0.  0.
513  5.12  0.  0.  0.
514  5.13  0.  0.  0.
515  5.14  0.  0.  0.
516  5.15  0.  0.  0.
517  5.16  0.  0.  0.
518  5.17  0.  0.  0.
519  5.18  0.  0.  0.
520  5.19  0.  0.  0.
521  5.20  0.  0.  0.
522  5.21  0.  0.  0.
523  5.22  0.  0.  0.
524  5.23  0.  0.  0.
525  5.24  0.  0.  0.
526  5.25  0.  0.  0.
527  5.26  0.  0.  0.
528  5.27  0.  0.  0.
529  5.28  0.  0.  0.
530  5.29  0.  0.  0.
531  5.30  0.  0.  0.
532  5.31  0.  0.  0.
533  5.32  0.  0.  0.
534  5.33  0.  0.  0.
535  5.34  0.  0.  0.
536  5.35  0.  0.  0.
537  5.36  0.  0.  0.
538  5.37  0.  0.  0.
539  5.38  0.  0.  0.
540  5.39  0.  0.  0.
541  5.40  0.  0.  0.
542  5.41  0.  0.  0.
543  5.42  0.  0.  0.
544  5.43  0.  0.  0.
545  5.44  0.  0.  0.
546  5.45  0.  0.  0.
547  5.46  0.  0.  0.
548  5.47  0.  0.  0.
549  5.48  0.  0.  0.
550  5.49  0.  0.  0.
551  5.50  0.  0.  0.
552  5.51  0.  0.  0.
553  5.52  0.  0.  0.
554  5.53  0.  0.  0.
555  5.54  0.  0.  0.
556  5.55  0.  0.  0.
557  5.56  0.  0.  0.
558  5.57  0.  0.  0.
559  5.58  0.  0.  0.
560  5.59  0.  0.  0.
561  5.60  0.  0.  0.
562  5.61  0.  0.  0.
563  5.62  0.  0.  0.
564  5.63  0.  0.  0.
565  5.64  0.  0.  0.
566  5.65  0.  0.  0.
567  5.66  0.  0.  0.
568  5.67  0.  0.  0.
569  5.68  0.  0.  0.
570  5.69  0.  0.  0.
571  5.70  0.  0.  0.
572  5.71  0.  0.  0.
573  5.72  0.  0.  0.
574  5.73  0.  0.  0.
575  5.74  0.  0.  0.
576  5.75  0.  0.  0.
577  5.76  0.  0.  0.
578  5.77  0.  0.  0.
579  5.78  0.  0.  0.
580  5.79  0.  0.  0.
581  5.80  0.  0.  0.
582  5.81  0.  0.  0.
583  5.82  0.  0.  0.
584  5.83  0.  0.  0.
585  5.84  0.  0.  0.
586  5.85  0.  0.  0.
587  5.86  0.  0.  0.
588  5.87  0.  0.  0.
589  5.88  0.  0.  0.
590  5.89  0.  0.  0.
591  5.90  0.  0.  0.
592  5.91  0.  0.  0.
593  5.92  0.  0.  0.
594  5.93  0.  0.  0.
595  5.94  0.  0.  0.
596  5.95  0.  0.  0.
597  5.96  0.  0.  0.
598  5.97  0.  0.  0.
599  5.98  0.  0.  0.
600  5.99  0.  0.  0.
1                         7.8089054603247E+00 -4.5889858872777E-01
1  0.0000000000000E+00 -1.1243387526561E-08 -5.0305261289256E-08
2  1.0000000000000E-02  2.9483415801625E-03 -8.4065911706711E-05
3  2.0000000000000E-02  1.1779450306072E-02 -3.1292067154112E-04
4  3.0000000000000E-02  2.6451460009060E-02 -6.1749135734952E-04
5  4.0000000000000E-02  4.6894207708634E-02 -8.8580939224778E-04
6  5.0000000000000E-02  7.3008681300444E-02 -9.6762308369782E-04
7  6.0000000000000E-02  1.0466629882060E-01 -6.8062535301340E-04
8  7.0000000000000E-02  1.4170806954918E-01  1.8192401995415E-04
9  8.0000000000000E-02  1.8394369845919E-01  1.8424526174610E-03
10  9.0000000000000E-02  2.3115070456028E-01  4.5295183582818E-03
11  1.0000000000000E-01  2.8307363018866E-01  8.4677844278717E-03
12  1.1000000000000E-01  3.3942342199585E-01  1.3867888819200E-02
13  1.2000000000000E-01  3.9987706512016E-01  2.0916578433878E-02
14  1.3000000000000E-01  4.6407754971279E-01  2.9767472520907E-02
15  1.4000000000000E-01  5.3163424366129E-01  4.0532802684971E-02
16  1.5000000000000E-01  6.0212373712999E-01  5.3276447272340E-02
17  1.6000000000000E-01  6.7509121364098E-01  6.8008537521133E-02
18  1.7000000000000E-01  7.5005238915833E-01  8.4681862687391E-02
19  1.8000000000000E-01  8.2649604540111E-01  1.0319024299513E-01
20  1.9000000000000E-01  9.0388716685567E-01  1.2336897455089E-01
21  2.0000000000000E-01  9.8167067319537E-01  1.4499738137318E-01
22  2.1000000000000E-01  1.0592757205979E+00  1.6780343863317E-01
23  2.2000000000000E-01  1.1361205273484E+00  1.9147036039005E-01
24  2.3000000000000E-01  1.2116176617093E+00  2.1564497684966E-01
25  2.4000000000000E-01  1.2851797138852E+00  2.3994766273891E-01
26  2.5000000000000E-01  1.3562252595478E+00  2.6398352189557E-01
27  2.6000000000000E-01  1.4241850102902E+00  2.8735448555068E-01
28  2.7000000000000E-01  1.4885080369764E+00  3.0967194468903E-01
29  2.8000000000000E-01  1.5486679455716E+00  3.3056951165454E-01
30  2.9000000000000E-01  1.6041688819405E+00  3.4971549379669E-01
31  3.0000000000000E-01  1.6545512424345E+00  3.6682466300840E-01
32  3.1000000000000E-01  1.6993969708993E+00  3.8166891963302E-01
33  3.2000000000000E-01  1.7383343299641E+00  3.9408647714058E-01
34  3.3000000000000E-01  1.7710420449655E+00  4.0398923447475E-01
35  3.4000000000000E-01  1.7972527323300E+00  4.1136805493183E-01
36  3.5000000000000E-01  1.8167555403436E+00  4.1629573234257E-01
37  3.6000000000000E-01  1.8293979485163E+00  4.1892749534379E-01
38  3.7000000000000E-01  1.8350866916907E+00  4.1949897651861E-01
39  3.8000000000000E-01  1.8337877960655E+00  4.1832165280141E-01
40  3.9000000000000E-01  1.8255257358056E+00  4.1577584428724E-01
41  4.0000000000000E-01  1.8103817402311E+00  4.1230143788257E-01
42  4.1000000000000E-01  1.7884913021136E+00  4.0838657752374E-01
43  4.2000000000000E-01  1.7600409567111E+00  4.0455463149812E-01
44  4.3000000000000E-01  1.7252644182881E+00  4.0134980742994E-01
45  4.4000000000000E-01  1.6844381754614E+00  3.9932183468237E-01
46  4.5000000000000E-01  1.6378766583371E+00  3.9901017053966E-01
47  4.6000000000000E-01  1.5859270987098E+00  4.0092820920289E-01
48  4.7000000000000E-01  1.5289642093132E+00  4.0554798042010E-01
49  4.8000000000000E-01  1.4673848091018E+00  4.1328581699600E-01
50  4.9000000000000E-01  1.4016025187706E+00  4.2448944749194E-01
51  5.0000000000000E-01  1.3320426442733E+00  4.3942693262727E-01
52  5.1000000000000E-01  1.2591373561792E+00  4.5827781220470E-01
53  5.2000000000000E-01  1.1833212596333E+00  4.8112676523994E-01
54  5.3000000000000E-01  1.1050274338680E+00  5.0796001123516E-01
55  5.4000000000000E-01  1.0246840021648E+00  5.3866459741974E-01
56  5.5000000000000E-01  9.4271127346891E-01  5.7303062781458E-01
57  5.6000000000000E-01  8.5951947614846E-01  6.1075639791222E-01
58  5.7000000000000E-01  7.7550708335090E-01  6.5145630649567E-01
59  5.8000000000000E-01  6.9105970872584E-01  6.9467132659289E-01
60  5.9000000000000E-01  6.0654953164686E-01  7.3988173368460E-01
61  6.0000000000000E-01  5.2233519312907E-01  7.8652171382106E-01
62  6.1000000000000E-01  4.3876208801188E-01  8.3399540980224E-01
63  6.2000000000000E-01  3.5616296619176E-01  8.8169391226833E-01
64  6.3000000000000E-01  2.7485874619385E-01  9.2901266627931E-01
65  6.4000000000000E-01  1.9515943850437E-01  9.7536874412445E-01
66  6.5000000000000E-01  1.1736507407041E-01  1.0202174325832E+00
67  6.6000000000000E-01  4.1766535306671E-02  1.0630675980038E+00
68  6.7000000000000E-01 -3.1353807205892E-02  1.1034953251580E+00
69  6.8000000000000E-01 -1.0172173955402E-01  1.1411553750912E+00
70  6.9000000000000E-01 -1.6907120504250E-01  1.1757900717933E+00
71  7.0000000000000E-01 -2.3314471857184E-01  1.2072353056189E+00
72  7.1000000000000E-01 -2.9369423437168E-01  1.2354234306978E+00
73  7.2000000000000E-01 -3.5048248614598E-01  1.2603829313852E+00
74  7.3000000000000E-01 -4.0328479701371E-01  1.2822348361008E+00
75  7.4000000000000E-01 -4.5189133449940E-01  1.3011859624704E+00
76  7.5000000000000E-01 -4.9610976401506E-01  1.3175191821239E+00
77  7.6000000000000E-01 -5.3576823354984E-01  1.3315809934890E+00
78  7.7000000000000E-01 -5.7071860340141E-01  1.3437667831220E+00
79  7.8000000000000E-01 -6.0083981844567E-01  1.3545042374834E+00
80  7.9000000000000E-01 -6.2604130728247E-01  1.3642354347928E+00
81  8.0000000000000E-01 -6.4626628315202E-01  1.3733981983010E+00
82  8.1000000000000E-01 -6.6149481621625E-01  1.3824073260815E+00
83  8.2000000000000E-01 -6.7174654593612E-01  1.3916363268964E+00
84  8.3000000000000E-01 -6.7708290600544E-01  1.4014002860578E+00
85  8.4000000000000E-01 -6.7760874263031E-01  1.4119404593470E+00
86  8.5000000000000E-01 -6.7347321972431E-01  1.4234111474611E+00
87  8.6000000000000E-01 -6.6486992152916E-01  1.4358693392652E+00
88  8.7000000000000E-01 -6.5203608382987E-01  1.4492675310905E+00
89  8.8000000000000E-01 -6.3525090874335E-01  1.4634500337325E+00
90  8.9000000000000E-01 -6.1483294433564E-01  1.4781529714758E+00
91  9.0000000000000E-01 -5.9113653828471E-01  1.4930080616329E+00
92  9.1000000000000E-01 -5.6454740359968E-01  1.5075501422682E+00
93  9.2000000000000E-01 -5.3547736313318E-01  1.5212282937561E+00
94  9.3000000000000E-01 -5.0435836736101E-01  1.5334202804514E+00
95  9.4000000000000E-01 -4.7163590573591E-01  1.5434499259037E+00
96  9.5000000000000E-01 -4.3776195497892E-01  1.5506069324211E+00
97  9.6000000000000E-01 -4.0318762713206E-01  1.5541685668949E+00
98  9.7000000000000E-01 -3.6835569533598E-01  1.5534225627585E+00
99  9.8000000000000E-01 -3.3369318549784E-01  1.5476905354677E+00
100  9.9000000000000E-01 -2.9960422679528E-01  1.5363511781230E+00
101  1.0000000000000E+00 -2.6646335297714E-01  1.5188624963830E+00
102  1.0100000000000E+00 -2.3460943948216E-01  1.4947823586085E+00
103  1.0200000000000E+00 -2.0434044849195E-01  1.4637866784647E+00
104  1.0300000000000E+00 -1.7590913529741E-01  1.4256846126065E+00
105  1.0400000000000E+00 -1.4951984507328E-01  1.3804302446010E+00
106  1.0500000000000E+00 -1.2532649983027E-01  1.3281303360033E+00
107  1.0600000000000E+00 -1.0343184147901E-01  1.2690478544454E+00
108  1.0700000000000E+00 -8.3887959326308E-02  1.2036011339062E+00
109  1.0800000000000E+00 -6.6698089858053E-02  1.1323586803262E+00
110  1.0900000000000E+00 -5.1819634000885E-02  1.0560298038252E+00
111  1.1000000000000E+00 -3.9168293500882E-02  9.7545143176089E-01
112  1.1100000000000E+00 -2.8623184244050E-02  8.9157163218689E-01
113  1.1200000000000E+00 -2.0032741554209E-02  8.0543054974289E-01
114  1.1300000000000E+00 -1.3221191516558E-02  7.1813962247888E-01
115  1.1400000000000E+00 -7.9953241996981E-03  6.3086010443774E-01
116  1.1500000000000E+00 -4.1512701056482E-03  5.4478206160689E-01
117  1.1600000000000E+00 -1.4809509943417E-03  4.6110513505047E-01
118  1.1700000000000E+00  2.2215185813117E-04  3.8102247944654E-01
119  1.1800000000000E+00  1.1582188542481E-03  3.0570919426212E-01
120  1.1900000000000E+00  1.5181141177015E-03  2.3631785644151E-01
121  1.2000000000000E+00  1.4682072738314E-03  1.7394524352937E-01
122  1.2100000000000E+00  1.1452440193674E-03  1.1962397701372E-01
123  1.2200000000000E+00  7.3073248023423E-04  7.4499975124456E-02
124  1.2300000000000E+00  3.6198930653757E-04  3.9520279521976E-02
125  1.2400000000000E+00  1.1713464729749E-04  1.5359257151240E-02