Th    ONCVPSP-4.0.1  r_core=   1.50351   1.40776   1.65452   1.60577
90.0000     30.0000      220307    zatom,zion,pspd
8      11   3     4   600     0    pspcod,pspxc,lmax,lloc,mmax,r2well
5.99000000  5.00000000  0.00000000    rchrg fchrg qchrg
3     2     2     2     0    nproj
1     1           extension_switch
0                         1.1529832447205E+01 -2.3757780473148E+00  9.6374237150538E-01
1  0.0000000000000E+00 -1.8955733649406E-09 -3.7685748965899E-10 -8.4964697499856E-09
2  1.0000000000000E-02  1.1711910390581E-01  3.1377095471201E-02  4.6962354806921E-02
3  2.0000000000000E-02  2.3367745657673E-01  6.2706332160408E-02  9.3255540311032E-02
4  3.0000000000000E-02  3.4911792342063E-01  9.3940263267217E-02  1.3821890122485E-01
5  4.0000000000000E-02  4.6289056807150E-01  1.2503226006398E-01  1.8120868105665E-01
6  5.0000000000000E-02  5.7445616434840E-01  1.5593690630463E-01  2.2160615064323E-01
7  6.0000000000000E-02  6.8328960500614E-01  1.8661037535474E-01  2.5882535782767E-01
8  7.0000000000000E-02  7.8888317514358E-01  2.1701078473473E-01  2.9232038218257E-01
9  8.0000000000000E-02  8.9074966003155E-01  2.4709852314548E-01  3.2159198717610E-01
10  9.0000000000000E-02  9.8842525943016E-01  2.7683654550325E-01  3.4619357250866E-01
11  1.0000000000000E-01  1.0814722831485E+00  3.0619063204291E-01  3.6573634132946E-01
12  1.1000000000000E-01  1.1694816056101E+00  3.3512960814332E-01  3.7989361045942E-01
13  1.2000000000000E-01  1.2520748604788E+00  3.6362552217767E-01  3.8840420635803E-01
14  1.3000000000000E-01  1.3289063599092E+00  3.9165377938108E-01  3.9107490511726E-01
15  1.4000000000000E-01  1.3996647266648E+00  4.1919323044775E-01  3.8778189096402E-01
16  1.5000000000000E-01  1.4640742311254E+00  4.4622621430516E-01  3.7847122431471E-01
17  1.6000000000000E-01  1.5218958290216E+00  4.7273855525250E-01  3.6315832705332E-01
18  1.7000000000000E-01  1.5729278995326E+00  4.9871951537929E-01  3.4192650909765E-01
19  1.8000000000000E-01  1.6170066870894E+00  5.2416170388710E-01  3.1492457618570E-01
20  1.9000000000000E-01  1.6540064537898E+00  5.4906094560804E-01  2.8236357386447E-01
21  2.0000000000000E-01  1.6838393526878E+00  5.7341611163761E-01  2.4451273663227E-01
22  2.1000000000000E-01  1.7064550353215E+00  5.9722891556517E-01  2.0169472381649E-01
23  2.2000000000000E-01  1.7218400096355E+00  6.2050367928219E-01  1.5428023483647E-01
24  2.3000000000000E-01  1.7300167668993E+00  6.4324707276914E-01  1.0268210580714E-01
25  2.4000000000000E-01  1.7310426982803E+00  6.6546783259800E-01  4.7348996819162E-02
26  2.5000000000000E-01  1.7250088233765E+00  6.8717646413339E-01 -1.1241215453735E-02
27  2.6000000000000E-01  1.7120383542203E+00  7.0838493256841E-01 -7.2588222000910E-02
28  2.7000000000000E-01  1.6922851190296E+00  7.2910634798730E-01 -1.3617612379555E-01
29  2.8000000000000E-01  1.6659318702884E+00  7.4935464960761E-01 -2.0148021466883E-01
30  2.9000000000000E-01  1.6331885016018E+00  7.6914429421928E-01 -2.6797359066250E-01
31  3.0000000000000E-01  1.5942901971978E+00  7.8848995361201E-01 -3.3513347734696E-01
32  3.1000000000000E-01  1.5494955369592E+00  8.0740622546857E-01 -4.0244717416438E-01
33  3.2000000000000E-01  1.4990845784981E+00  8.2590736180896E-01 -4.6941752428237E-01
34  3.3000000000000E-01  1.4433569360642E+00  8.4400701860518E-01 -5.3556782954653E-01
35  3.4000000000000E-01  1.3826298740560E+00  8.6171802965972E-01 -6.0044614267327E-01
36  3.5000000000000E-01  1.3172364306186E+00  8.7905220726285E-01 -6.6362888259114E-01
37  3.6000000000000E-01  1.2475235843303E+00  8.9602017152674E-01 -7.2472373354083E-01
38  3.7000000000000E-01  1.1738504743555E+00  9.1263120965116E-01 -7.8337180389321E-01
39  3.8000000000000E-01  1.0965866817240E+00  9.2889316571917E-01 -8.3924903634387E-01
40  3.9000000000000E-01  1.0161105766714E+00  9.4481236096546E-01 -8.9206687686464E-01
41  4.0000000000000E-01  9.3280773428004E-01  9.6039354381879E-01 -9.4157222524373E-01
42  4.1000000000000E-01  8.4706941807330E-01  9.7563986840648E-01 -9.8754670489414E-01
43  4.2000000000000E-01  7.5929112879226E-01  9.9055289963616E-01 -1.0298053035722E+00
44  4.3000000000000E-01  6.6987121337681E-01  1.0051326424506E+00 -1.0681944494224E+00
45  4.4000000000000E-01  5.7920952723773E-01  1.0193775923955E+00 -1.1025895981097E+00
46  4.5000000000000E-01  4.8770614128909E-01  1.0332848042597E+00 -1.1328924164445E+00
47  4.6000000000000E-01  3.9576008394598E-01  1.0468499752468E+00 -1.1590276556903E+00
48  4.7000000000000E-01  3.0376810741836E-01  1.0600675389302E+00 -1.1809398134477E+00
49  4.8000000000000E-01  2.1212346716746E-01  1.0729307661255E+00 -1.1985896865501E+00
50  4.9000000000000E-01  1.2121470335178E-01  1.0854318687993E+00 -1.2119509186636E+00
51  5.0000000000000E-01  3.1424413480752E-02  1.0975621032107E+00 -1.2210066452420E+00
52  5.1000000000000E-01 -5.6871993688371E-02  1.1093118686619E+00 -1.2257463351264E+00
53  5.2000000000000E-01 -1.4330757174927E-01  1.1206707985021E+00 -1.2261629224866E+00
54  5.3000000000000E-01 -2.2752514486363E-01  1.1316278403916E+00 -1.2222503150360E+00
55  5.4000000000000E-01 -3.0917865575354E-01  1.1421713232700E+00 -1.2140013546992E+00
56  5.5000000000000E-01 -3.8793455634606E-01  1.1522890089855E+00 -1.2014062953287E+00
57  5.6000000000000E-01 -4.6347324140821E-01  1.1619681271143E+00 -1.1844518489058E+00
58  5.7000000000000E-01 -5.3549052276691E-01  1.1711953921183E+00 -1.1631208371731E+00
59  5.8000000000000E-01 -6.0369913882548E-01  1.1799570026443E+00 -1.1373924701343E+00
60  5.9000000000000E-01 -6.6783029113355E-01  1.1882386234408E+00 -1.1072432566417E+00
61  6.0000000000000E-01 -7.2763519681336E-01  1.1960253510427E+00 -1.0726485357225E+00
62  6.1000000000000E-01 -7.8288664276523E-01  1.2033016650411E+00 -1.0335846007095E+00
63  6.2000000000000E-01 -8.3338052484527E-01  1.2100513673862E+00 -9.9003137203018E-01
64  6.3000000000000E-01 -8.7893735270051E-01  1.2162575127636E+00 -9.4197555899759E-01
65  6.4000000000000E-01 -9.1940369873401E-01  1.2219023336096E+00 -8.8941423652229E-01
66  6.5000000000000E-01 -9.5465356782028E-01  1.2269671637874E+00 -8.3235874963377E-01
67  6.6000000000000E-01 -9.8458966296202E-01  1.2314323653092E+00 -7.7083884739606E-01
68  6.7000000000000E-01 -1.0091445211265E+00  1.2352772627556E+00 -7.0490693849630E-01
69  6.8000000000000E-01 -1.0282814930693E+00  1.2384800901974E+00 -6.3464235372577E-01
70  6.9000000000000E-01 -1.0419955410798E+00  1.2410179554639E+00 -5.6015549596859E-01
71  7.0000000000000E-01 -1.0503138292971E+00  1.2428668265154E+00 -4.8159175630946E-01
72  7.1000000000000E-01 -1.0532960825463E+00  1.2440015444675E+00 -3.9913507558380E-01
73  7.2000000000000E-01 -1.0510346915584E+00  1.2443958674773E+00 -3.1301103416178E-01
74  7.3000000000000E-01 -1.0436545449221E+00  1.2440225492417E+00 -2.2348935897898E-01
75  7.4000000000000E-01 -1.0313125711736E+00  1.2428534552815E+00 -1.3088574573197E-01
76  7.5000000000000E-01 -1.0141969780089E+00  1.2408597194952E+00 -3.5562905620698E-02
77  7.6000000000000E-01 -9.9252617965598E-01  1.2380119426822E+00  6.2069240136562E-02
78  7.7000000000000E-01 -9.6654740791550E-01  1.2342804338633E+00  1.6155427880737E-01
79  7.8000000000000E-01 -9.3653500718701E-01  1.2296354942826E+00  2.6239098062151E-01
80  7.9000000000000E-01 -9.0278841887222E-01  1.2240477429841E+00  3.6403595281628E-01
81  8.0000000000000E-01 -8.6562986578702E-01  1.2174884818272E+00  4.6590727634281E-01
82  8.1000000000000E-01 -8.2540175253118E-01  1.2099300967694E+00  5.6738910708013E-01
83  8.2000000000000E-01 -7.8246380305206E-01  1.2013464912124E+00  6.6783720185581E-01
84  8.3000000000000E-01 -7.3718996179324E-01  1.1917135462172E+00  7.6658530816469E-01
85  8.4000000000000E-01 -6.8996508973500E-01  1.1810096014469E+00  8.6295233567471E-01
86  8.5000000000000E-01 -6.4118149120479E-01  1.1692159498385E+00  9.5625020786699E-01
87  8.6000000000000E-01 -5.9123531146109E-01  1.1563173382359E+00  1.0457922739278E+00
88  8.7000000000000E-01 -5.4052284863721E-01  1.1423024655743E+00  1.1309021447173E+00
89  8.8000000000000E-01 -4.8943682658190E-01  1.1271644696982E+00  1.2109228026871E+00
90  8.9000000000000E-01 -4.3836267737299E-01  1.1109013935427E+00  1.2852258243711E+00
91  9.0000000000000E-01 -3.8767488373807E-01  1.0935166212232E+00  1.3532205458379E+00
92  9.1000000000000E-01 -3.3773343223786E-01  1.0750192745776E+00  1.4143629965513E+00
93  9.2000000000000E-01 -2.8888042781085E-01  1.0554245608838E+00  1.4681644256137E+00
94  9.3000000000000E-01 -2.4143691911639E-01  1.0347540628556E+00  1.5141992465357E+00
95  9.4000000000000E-01 -1.9569998203702E-01  1.0130359625878E+00  1.5521122325226E+00
96  9.5000000000000E-01 -1.5194010571773E-01  9.9030519188064E-01  1.5816248038083E+00
97  9.6000000000000E-01 -1.1039892165414E-01  9.6660350231798E-01  1.6025402617176E+00
98  9.7000000000000E-01 -7.1287311635038E-02  9.4197944959218E-01  1.6147478407299E+00
99  9.8000000000000E-01 -3.4783924856076E-02  9.1648828784430E-01  1.6182254696541E+00
100  9.9000000000000E-01 -1.0341283303245E-03  8.9019177120788E-01  1.6130411557600E+00
101  1.0000000000000E+00  2.9850592090324E-02  8.6315786128508E-01  1.5993529310325E+00
102  1.0100000000000E+00  5.7792770086031E-02  8.3546034092110E-01  1.5774073271565E+00
103  1.0200000000000E+00  8.2748634344054E-02  8.0717833635052E-01  1.5475363749182E+00
104  1.0300000000000E+00  1.0470732682289E-01  7.7839575153849E-01  1.5101531539169E+00
105  1.0400000000000E+00  1.2368967759055E-01  7.4920062030069E-01  1.4657459492358E+00
106  1.0500000000000E+00  1.3974655809322E-01  7.1968438352332E-01  1.4148711023842E+00
107  1.0600000000000E+00  1.5295684262067E-01  6.8994110048928E-01  1.3581446738376E+00
108  1.0700000000000E+00  1.6342501532106E-01  6.6006660491285E-01  1.2962330631870E+00
109  1.0800000000000E+00  1.7127846721627E-01  6.3015761775768E-01  1.2298427595912E+00
110  1.0900000000000E+00  1.7666453416569E-01  6.0031083023470E-01  1.1597094194027E+00
111  1.1000000000000E+00  1.7974733242109E-01  5.7062197150722E-01  1.0865864887056E+00
112  1.1100000000000E+00  1.8070445322318E-01  5.4118487654806E-01  1.0112336056695E+00
113  1.1200000000000E+00  1.7972358163205E-01  5.1209057026241E-01  9.3440503037037E-01
114  1.1300000000000E+00  1.7699910736854E-01  4.8342638438866E-01  8.5683835765188E-01
115  1.1400000000000E+00  1.7272879673746E-01  4.5527512379004E-01  7.7924377115964E-01
116  1.1500000000000E+00  1.6711059462077E-01  4.2771429853398E-01  7.0229409350277E-01
117  1.1600000000000E+00  1.6033962396684E-01  4.0081543760190E-01  6.2661587817267E-01
118  1.1700000000000E+00  1.5260544709640E-01  3.7464349916616E-01  5.5278177310079E-01
119  1.1800000000000E+00  1.4408964843302E-01  3.4925639109988E-01  4.8130436331656E-01
120  1.1900000000000E+00  1.3496379186947E-01  3.2470461373282E-01  4.1263167074907E-01
121  1.2000000000000E+00  1.2538779793420E-01  3.0103103484099E-01  3.4714445297266E-01
122  1.2100000000000E+00  1.1550877606446E-01  2.7827080442237E-01  2.8515539893637E-01
123  1.2200000000000E+00  1.0546033579615E-01  2.5645141400750E-01  2.2691026921722E-01
124  1.2300000000000E+00  9.5362387324408E-02  2.3559290202881E-01  1.7259097014597E-01
125  1.2400000000000E+00  8.5321426827060E-02  2.1570820316349E-01  1.2232048596906E-01
126  1.2500000000000E+00  7.5431285163216E-02  1.9680363556752E-01  7.6169520987642E-02
127  1.2600000000000E+00  6.5774299896808E-02  1.7887951549359E-01  3.4164623683146E-02
128  1.2700000000000E+00  5.6422850331617E-02  1.6193088399850E-01 -3.7025215729775E-03
129  1.2800000000000E+00  4.7441173164984E-02  1.4594832524366E-01 -3.7465043410884E-02
130  1.2900000000000E+00  3.8887352484675E-02  1.3091885027739E-01 -6.7170582196771E-02
131  1.3000000000000E+00  3.0815352304675E-02  1.1682681419399E-01 -9.2871355481670E-02
132  1.3100000000000E+00  2.3276932499948E-02  1.0365482815252E-01 -1.1461532187840E-01
133  1.3200000000000E+00  1.6323259770577E-02  9.1384620884196E-02 -1.3243929744510E-01
134  1.3300000000000E+00  1.0005994287367E-02  7.9997797053076E-02 -1.4636500788084E-01
135  1.3400000000000E+00  4.3775998860695E-03  6.9476432142747E-02 -1.5639919612449E-01
136  1.3500000000000E+00 -5.0940934985731E-04  5.9803435316545E-02 -1.6253905003259E-01
137  1.3600000000000E+00 -4.6046100734972E-03  5.0962603047852E-02 -1.6478436666767E-01
138  1.3700000000000E+00 -7.8635613768042E-03  4.2938277087072E-02 -1.6315803090249E-01
139  1.3800000000000E+00 -1.0253851525156E-02  3.5714510620800E-02 -1.5773655469831E-01
140  1.3900000000000E+00 -1.1763749928737E-02  2.9273635767313E-02 -1.4869261290225E-01
141  1.4000000000000E+00 -1.2413920499416E-02  2.3594121689777E-02 -1.3635148899715E-01
142  1.4100000000000E+00 -1.2273055550164E-02  1.8647532022099E-02 -1.2126536287782E-01
143  1.4200000000000E+00 -1.1468534134442E-02  1.4396027909796E-02 -1.0425823028909E-01
144  1.4300000000000E+00 -1.0158715166767E-02  1.0795581226701E-02 -8.6266364014154E-02
145  1.4400000000000E+00 -8.5188551637768E-03  7.7927662618392E-03 -6.8240764568131E-02
146  1.4500000000000E+00 -6.7059705024451E-03  5.3426568493294E-03 -5.1015117520595E-02
147  1.4600000000000E+00 -4.8628729938475E-03  3.4074266025552E-03 -3.5315428166623E-02
148  1.4700000000000E+00 -3.1342450853379E-03  1.9474298485386E-03 -2.1816885658131E-02
149  1.4800000000000E+00 -1.6634468826098E-03  9.2282171811499E-04 -1.1133097538609E-02
150  1.4900000000000E+00 -5.8370623100428E-04  2.9124965986635E-04 -3.7673261805377E-03
151  1.5000000000000E+00 -5.5698805399481E-05  2.4961328019883E-05 -3.4653495722496E-04
152  1.5100000000000E+00  8.4133087042058E-06 -3.5372118031094E-06  5.1342164252994E-05
153  1.5200000000000E+00 -1.9307947975668E-06  8.5303687471727E-07 -1.1975435221226E-05
154  1.53  0. -0.  0.
155  1.54  0.  0.  0.
156  1.55  0.  0.  0.
157  1.56  0.  0.  0.
158  1.57  0.  0.  0.
159  1.58  0.  0.  0.
160  1.59  0.  0.  0.
161  1.60  0.  0.  0.
162  1.61  0.  0.  0.
163  1.62  0.  0.  0.
164  1.63  0.  0.  0.
165  1.64  0.  0.  0.
166  1.65  0.  0.  0.
167  1.66  0.  0.  0.
168  1.67  0.  0.  0.
169  1.68  0.  0.  0.
170  1.69  0.  0.  0.
171  1.70  0.  0.  0.
172  1.71  0.  0.  0.
173  1.72  0.  0.  0.
174  1.73  0.  0.  0.
175  1.74  0.  0.  0.
176  1.75  0.  0.  0.
177  1.76  0.  0.  0.
178  1.77  0.  0.  0.
179  1.78  0.  0.  0.
180  1.79  0.  0.  0.
181  1.80  0.  0.  0.
182  1.81  0.  0.  0.
183  1.82  0.  0.  0.
184  1.83  0.  0.  0.
185  1.84  0.  0.  0.
186  1.85  0.  0.  0.
187  1.86  0.  0.  0.
188  1.87  0.  0.  0.
189  1.88  0.  0.  0.
190  1.89  0.  0.  0.
191  1.90  0.  0.  0.
192  1.91  0.  0.  0.
193  1.92  0.  0.  0.
194  1.93  0.  0.  0.
195  1.94  0.  0.  0.
196  1.95  0.  0.  0.
197  1.96  0.  0.  0.
198  1.97  0.  0.  0.
199  1.98  0.  0.  0.
200  1.99  0.  0.  0.
201  2.00  0.  0.  0.
202  2.01  0.  0.  0.
203  2.02  0.  0.  0.
204  2.03  0.  0.  0.
205  2.04  0.  0.  0.
206  2.05  0.  0.  0.
207  2.06  0.  0.  0.
208  2.07  0.  0.  0.
209  2.08  0.  0.  0.
210  2.09  0.  0.  0.
211  2.10  0.  0.  0.
212  2.11  0.  0.  0.
213  2.12  0.  0.  0.
214  2.13  0.  0.  0.
215  2.14  0.  0.  0.
216  2.15  0.  0.  0.
217  2.16  0.  0.  0.
218  2.17  0.  0.  0.
219  2.18  0.  0.  0.
220  2.19  0.  0.  0.
221  2.20  0.  0.  0.
222  2.21  0.  0.  0.
223  2.22  0.  0.  0.
224  2.23  0.  0.  0.
225  2.24  0.  0.  0.
226  2.25  0.  0.  0.
227  2.26  0.  0.  0.
228  2.27  0.  0.  0.
229  2.28  0.  0.  0.
230  2.29  0.  0.  0.
231  2.30  0.  0.  0.
232  2.31  0.  0.  0.
233  2.32  0.  0.  0.
234  2.33  0.  0.  0.
235  2.34  0.  0.  0.
236  2.35  0.  0.  0.
237  2.36  0.  0.  0.
238  2.37  0.  0.  0.
239  2.38  0.  0.  0.
240  2.39  0.  0.  0.
241  2.40  0.  0.  0.
242  2.41  0.  0.  0.
243  2.42  0.  0.  0.
244  2.43  0.  0.  0.
245  2.44  0.  0.  0.
246  2.45  0.  0.  0.
247  2.46  0.  0.  0.
248  2.47  0.  0.  0.
249  2.48  0.  0.  0.
250  2.49  0.  0.  0.
251  2.50  0.  0.  0.
252  2.51  0.  0.  0.
253  2.52  0.  0.  0.
254  2.53  0.  0.  0.
255  2.54  0.  0.  0.
256  2.55  0.  0.  0.
257  2.56  0.  0.  0.
258  2.57  0.  0.  0.
259  2.58  0.  0.  0.
260  2.59  0.  0.  0.
261  2.60  0.  0.  0.
262  2.61  0.  0.  0.
263  2.62  0.  0.  0.
264  2.63  0.  0.  0.
265  2.64  0.  0.  0.
266  2.65  0.  0.  0.
267  2.66  0.  0.  0.
268  2.67  0.  0.  0.
269  2.68  0.  0.  0.
270  2.69  0.  0.  0.
271  2.70  0.  0.  0.
272  2.71  0.  0.  0.
273  2.72  0.  0.  0.
274  2.73  0.  0.  0.
275  2.74  0.  0.  0.
276  2.75  0.  0.  0.
277  2.76  0.  0.  0.
278  2.77  0.  0.  0.
279  2.78  0.  0.  0.
280  2.79  0.  0.  0.
281  2.80  0.  0.  0.
282  2.81  0.  0.  0.
283  2.82  0.  0.  0.
284  2.83  0.  0.  0.
285  2.84  0.  0.  0.
286  2.85  0.  0.  0.
287  2.86  0.  0.  0.
288  2.87  0.  0.  0.
289  2.88  0.  0.  0.
290  2.89  0.  0.  0.
291  2.90  0.  0.  0.
292  2.91  0.  0.  0.
293  2.92  0.  0.  0.
294  2.93  0.  0.  0.
295  2.94  0.  0.  0.
296  2.95  0.  0.  0.
297  2.96  0.  0.  0.
298  2.97  0.  0.  0.
299  2.98  0.  0.  0.
300  2.99  0.  0.  0.
301  3.00  0.  0.  0.
302  3.01  0.  0.  0.
303  3.02  0.  0.  0.
304  3.03  0.  0.  0.
305  3.04  0.  0.  0.
306  3.05  0.  0.  0.
307  3.06  0.  0.  0.
308  3.07  0.  0.  0.
309  3.08  0.  0.  0.
310  3.09  0.  0.  0.
311  3.10  0.  0.  0.
312  3.11  0.  0.  0.
313  3.12  0.  0.  0.
314  3.13  0.  0.  0.
315  3.14  0.  0.  0.
316  3.15  0.  0.  0.
317  3.16  0.  0.  0.
318  3.17  0.  0.  0.
319  3.18  0.  0.  0.
320  3.19  0.  0.  0.
321  3.20  0.  0.  0.
322  3.21  0.  0.  0.
323  3.22  0.  0.  0.
324  3.23  0.  0.  0.
325  3.24  0.  0.  0.
326  3.25  0.  0.  0.
327  3.26  0.  0.  0.
328  3.27  0.  0.  0.
329  3.28  0.  0.  0.
330  3.29  0.  0.  0.
331  3.30  0.  0.  0.
332  3.31  0.  0.  0.
333  3.32  0.  0.  0.
334  3.33  0.  0.  0.
335  3.34  0.  0.  0.
336  3.35  0.  0.  0.
337  3.36  0.  0.  0.
338  3.37  0.  0.  0.
339  3.38  0.  0.  0.
340  3.39  0.  0.  0.
341  3.40  0.  0.  0.
342  3.41  0.  0.  0.
343  3.42  0.  0.  0.
344  3.43  0.  0.  0.
345  3.44  0.  0.  0.
346  3.45  0.  0.  0.
347  3.46  0.  0.  0.
348  3.47  0.  0.  0.
349  3.48  0.  0.  0.
350  3.49  0.  0.  0.
351  3.50  0.  0.  0.
352  3.51  0.  0.  0.
353  3.52  0.  0.  0.
354  3.53  0.  0.  0.
355  3.54  0.  0.  0.
356  3.55  0.  0.  0.
357  3.56  0.  0.  0.
358  3.57  0.  0.  0.
359  3.58  0.  0.  0.
360  3.59  0.  0.  0.
361  3.60  0.  0.  0.
362  3.61  0.  0.  0.
363  3.62  0.  0.  0.
364  3.63  0.  0.  0.
365  3.64  0.  0.  0.
366  3.65  0.  0.  0.
367  3.66  0.  0.  0.
368  3.67  0.  0.  0.
369  3.68  0.  0.  0.
370  3.69  0.  0.  0.
371  3.70  0.  0.  0.
372  3.71  0.  0.  0.
373  3.72  0.  0.  0.
374  3.73  0.  0.  0.
375  3.74  0.  0.  0.
376  3.75  0.  0.  0.
377  3.76  0.  0.  0.
378  3.77  0.  0.  0.
379  3.78  0.  0.  0.
380  3.79  0.  0.  0.
381  3.80  0.  0.  0.
382  3.81  0.  0.  0.
383  3.82  0.  0.  0.
384  3.83  0.  0.  0.
385  3.84  0.  0.  0.
386  3.85  0.  0.  0.
387  3.86  0.  0.  0.
388  3.87  0.  0.  0.
389  3.88  0.  0.  0.
390  3.89  0.  0.  0.
391  3.90  0.  0.  0.
392  3.91  0.  0.  0.
393  3.92  0.  0.  0.
394  3.93  0.  0.  0.
395  3.94  0.  0.  0.
396  3.95  0.  0.  0.
397  3.96  0.  0.  0.
398  3.97  0.  0.  0.
399  3.98  0.  0.  0.
400  3.99  0.  0.  0.
401  4.00  0.  0.  0.
402  4.01  0.  0.  0.
403  4.02  0.  0.  0.
404  4.03  0.  0.  0.
405  4.04  0.  0.  0.
406  4.05  0.  0.  0.
407  4.06  0.  0.  0.
408  4.07  0.  0.  0.
409  4.08  0.  0.  0.
410  4.09  0.  0.  0.
411  4.10  0.  0.  0.
412  4.11  0.  0.  0.
413  4.12  0.  0.  0.
414  4.13  0.  0.  0.
415  4.14  0.  0.  0.
416  4.15  0.  0.  0.
417  4.16  0.  0.  0.
418  4.17  0.  0.  0.
419  4.18  0.  0.  0.
420  4.19  0.  0.  0.
421  4.20  0.  0.  0.
422  4.21  0.  0.  0.
423  4.22  0.  0.  0.
424  4.23  0.  0.  0.
425  4.24  0.  0.  0.
426  4.25  0.  0.  0.
427  4.26  0.  0.  0.
428  4.27  0.  0.  0.
429  4.28  0.  0.  0.
430  4.29  0.  0.  0.
431  4.30  0.  0.  0.
432  4.31  0.  0.  0.
433  4.32  0.  0.  0.
434  4.33  0.  0.  0.
435  4.34  0.  0.  0.
436  4.35  0.  0.  0.
437  4.36  0.  0.  0.
438  4.37  0.  0.  0.
439  4.38  0.  0.  0.
440  4.39  0.  0.  0.
441  4.40  0.  0.  0.
442  4.41  0.  0.  0.
443  4.42  0.  0.  0.
444  4.43  0.  0.  0.
445  4.44  0.  0.  0.
446  4.45  0.  0.  0.
447  4.46  0.  0.  0.
448  4.47  0.  0.  0.
449  4.48  0.  0.  0.
450  4.49  0.  0.  0.
451  4.50  0.  0.  0.
452  4.51  0.  0.  0.
453  4.52  0.  0.  0.
454  4.53  0.  0.  0.
455  4.54  0.  0.  0.
456  4.55  0.  0.  0.
457  4.56  0.  0.  0.
458  4.57  0.  0.  0.
459  4.58  0.  0.  0.
460  4.59  0.  0.  0.
461  4.60  0.  0.  0.
462  4.61  0.  0.  0.
463  4.62  0.  0.  0.
464  4.63  0.  0.  0.
465  4.64  0.  0.  0.
466  4.65  0.  0.  0.
467  4.66  0.  0.  0.
468  4.67  0.  0.  0.
469  4.68  0.  0.  0.
470  4.69  0.  0.  0.
471  4.70  0.  0.  0.
472  4.71  0.  0.  0.
473  4.72  0.  0.  0.
474  4.73  0.  0.  0.
475  4.74  0.  0.  0.
476  4.75  0.  0.  0.
477  4.76  0.  0.  0.
478  4.77  0.  0.  0.
479  4.78  0.  0.  0.
480  4.79  0.  0.  0.
481  4.80  0.  0.  0.
482  4.81  0.  0.  0.
483  4.82  0.  0.  0.
484  4.83  0.  0.  0.
485  4.84  0.  0.  0.
486  4.85  0.  0.  0.
487  4.86  0.  0.  0.
488  4.87  0.  0.  0.
489  4.88  0.  0.  0.
490  4.89  0.  0.  0.
491  4.90  0.  0.  0.
492  4.91  0.  0.  0.
493  4.92  0.  0.  0.
494  4.93  0.  0.  0.
495  4.94  0.  0.  0.
496  4.95  0.  0.  0.
497  4.96  0.  0.  0.
498  4.97  0.  0.  0.
499  4.98  0.  0.  0.
500  4.99  0.  0.  0.
501  5.00  0.  0.  0.
502  5.01  0.  0.  0.
503  5.02  0.  0.  0.
504  5.03  0.  0.  0.
505  5.04  0.  0.  0.
506  5.05  0.  0.  0.
507  5.06  0.  0.  0.
508  5.07  0.  0.  0.
509  5.08  0.  0.  0.
510  5.09  0.  0.  0.
511  5.10  0.  0.  0.
512  5.11  0.  0.  0.
513  5.12  0.  0.  0.
514  5.13  0.  0.  0.
515  5.14  0.  0.  0.
516  5.15  0.  0.  0.
517  5.16  0.  0.  0.
518  5.17  0.  0.  0.
519  5.18  0.  0.  0.
520  5.19  0.  0.  0.
521  5.20  0.  0.  0.
522  5.21  0.  0.  0.
523  5.22  0.  0.  0.
524  5.23  0.  0.  0.
525  5.24  0.  0.  0.
526  5.25  0.  0.  0.
527  5.26  0.  0.  0.
528  5.27  0.  0.  0.
529  5.28  0.  0.  0.
530  5.29  0.  0.  0.
531  5.30  0.  0.  0.
532  5.31  0.  0.  0.
533  5.32  0.  0.  0.
534  5.33  0.  0.  0.
535  5.34  0.  0.  0.
536  5.35  0.  0.  0.
537  5.36  0.  0.  0.
538  5.37  0.  0.  0.
539  5.38  0.  0.  0.
540  5.39  0.  0.  0.
541  5.40  0.  0.  0.
542  5.41  0.  0.  0.
543  5.42  0.  0.  0.
544  5.43  0.  0.  0.
545  5.44  0.  0.  0.
546  5.45  0.  0.  0.
547  5.46  0.  0.  0.
548  5.47  0.  0.  0.
549  5.48  0.  0.  0.
550  5.49  0.  0.  0.
551  5.50  0.  0.  0.
552  5.51  0.  0.  0.
553  5.52  0.  0.  0.
554  5.53  0.  0.  0.
555  5.54  0.  0.  0.
556  5.55  0.  0.  0.
557  5.56  0.  0.  0.
558  5.57  0.  0.  0.
559  5.58  0.  0.  0.
560  5.59  0.  0.  0.
561  5.60  0.  0.  0.
562  5.61  0.  0.  0.
563  5.62  0.  0.  0.
564  5.63  0.  0.  0.
565  5.64  0.  0.  0.
566  5.65  0.  0.  0.
567  5.66  0.  0.  0.
568  5.67  0.  0.  0.
569  5.68  0.  0.  0.
570  5.69  0.  0.  0.
571  5.70  0.  0.  0.
572  5.71  0.  0.  0.
573  5.72  0.  0.  0.
574  5.73  0.  0.  0.
575  5.74  0.  0.  0.
576  5.75  0.  0.  0.
577  5.76  0.  0.  0.
578  5.77  0.  0.  0.
579  5.78  0.  0.  0.
580  5.79  0.  0.  0.
581  5.80  0.  0.  0.
582  5.81  0.  0.  0.
583  5.82  0.  0.  0.
584  5.83  0.  0.  0.
585  5.84  0.  0.  0.
586  5.85  0.  0.  0.
587  5.86  0.  0.  0.
588  5.87  0.  0.  0.
589  5.88  0.  0.  0.
590  5.89  0.  0.  0.
591  5.90  0.  0.  0.
592  5.91  0.  0.  0.
593  5.92  0.  0.  0.
594  5.93  0.  0.  0.
595  5.94  0.  0.  0.
596  5.95  0.  0.  0.
597  5.96  0.  0.  0.
598  5.97  0.  0.  0.
599  5.98  0.  0.  0.
600  5.99  0.  0.  0.
1                         6.8854163646515E+00 -2.7977025062080E+00
1  0.0000000000000E+00 -1.2204064564481E-08 -1.0239587094896E-09
2  1.0000000000000E-02  2.8375120196349E-03  6.0820958867876E-04
3  2.0000000000000E-02  1.1337977619614E-02  2.4331443789438E-03
4  3.0000000000000E-02  2.5465017961677E-02  5.4756950593213E-03
5  4.0000000000000E-02  4.5157451307595E-02  9.7372554580264E-03
6  5.0000000000000E-02  7.0328494802887E-02  1.5219588746486E-02
7  6.0000000000000E-02  1.0086470075172E-01  2.1924644435951E-02
8  7.0000000000000E-02  1.3662467928483E-01  2.9854330355560E-02
9  8.0000000000000E-02  1.7743767152640E-01  3.9010244824174E-02
10  9.0000000000000E-02  2.2310204769615E-01  4.9393375128621E-02
11  1.0000000000000E-01  2.7338381272496E-01  6.1003769176318E-02
12  1.1000000000000E-01  3.2801520765920E-01  7.3840187783189E-02
13  1.2000000000000E-01  3.8669349818882E-01  8.7899745474635E-02
14  1.3000000000000E-01  4.4908004193253E-01  1.0317754790859E-01
15  1.4000000000000E-01  5.1479972360199E-01  1.1966633407095E-01
16  1.5000000000000E-01  5.8344084186915E-01  1.3735613124445E-01
17  1.6000000000000E-01  6.5455552377648E-01  1.5623393041697E-01
18  1.7000000000000E-01  7.2766073203178E-01  1.7628338928401E-01
19  1.8000000000000E-01  8.0223991775573E-01  1.9748456932473E-01
20  1.9000000000000E-01  8.7774535650815E-01  2.1981371261064E-01
21  2.0000000000000E-01  9.5360118906304E-01  2.4324306306045E-01
22  2.1000000000000E-01  1.0292071708431E+00  2.6774073580837E-01
23  2.2000000000000E-01  1.1039431156000E+00  2.9327063723255E-01
24  2.3000000000000E-01  1.1771740003100E+00  3.1979243702399E-01
25  2.4000000000000E-01  1.2482556798238E+00  3.4726159249295E-01
26  2.5000000000000E-01  1.3165411420529E+00  3.7562942414009E-01
27  2.6000000000000E-01  1.3813872178657E+00  4.0484324039145E-01
28  2.7000000000000E-01  1.4421616448530E+00  4.3484650833984E-01
29  2.8000000000000E-01  1.4982503711279E+00  4.6557906637464E-01
30  2.9000000000000E-01  1.5490649747143E+00  4.9697737374267E-01
31  3.0000000000000E-01  1.5940500661765E+00  5.2897479138491E-01
32  3.1000000000000E-01  1.6326905371889E+00  5.6150188785430E-01
33  3.2000000000000E-01  1.6645185159440E+00  5.9448676375148E-01
34  3.3000000000000E-01  1.6891198917250E+00  6.2785538792769E-01
35  3.4000000000000E-01  1.7061402756828E+00  6.6153193869897E-01
36  3.5000000000000E-01  1.7152902727763E+00  6.9543914349471E-01
37  3.6000000000000E-01  1.7163499508380E+00  7.2949861071846E-01
38  3.7000000000000E-01  1.7091724065959E+00  7.6363114812127E-01
39  3.8000000000000E-01  1.6936863449208E+00  7.9775706266109E-01
40  3.9000000000000E-01  1.6698976062351E+00  8.3179643762876E-01
41  4.0000000000000E-01  1.6378895974850E+00  8.6566938373775E-01
42  4.1000000000000E-01  1.5978226038804E+00  8.9929626187661E-01
43  4.2000000000000E-01  1.5499319812511E+00  9.3259787628214E-01
44  4.3000000000000E-01  1.4945252518084E+00  9.6549563797685E-01
45  4.4000000000000E-01  1.4319781488043E+00  9.9791169939753E-01
46  4.5000000000000E-01  1.3627296774991E+00  1.0297690621905E+00
47  4.6000000000000E-01  1.2872762804469E+00  1.0609916611341E+00
48  4.7000000000000E-01  1.2061652138875E+00  1.0915044280420E+00
49  4.8000000000000E-01  1.1199872585249E+00  1.1212333402735E+00
50  4.9000000000000E-01  1.0293689017633E+00  1.1501054591098E+00
51  5.0000000000000E-01  9.3496413920935E-01  1.1780489637236E+00
52  5.1000000000000E-01  8.3744605065675E-01  1.2049931867602E+00
53  5.2000000000000E-01  7.3749830964575E-01  1.2308686576516E+00
54  5.3000000000000E-01  6.3580678591625E-01  1.2556071596909E+00
55  5.4000000000000E-01  5.3305139663223E-01  1.2791418066053E+00
56  5.5000000000000E-01  4.2989835520342E-01  1.3014071438838E+00
57  5.6000000000000E-01  3.2699295602743E-01  1.3223392794514E+00
58  5.7000000000000E-01  2.2495301976170E-01  1.3418760474497E+00
59  5.8000000000000E-01  1.2436310713314E-01  1.3599572079010E+00
60  5.9000000000000E-01  2.5769590202328E-02  1.3765246839261E+00
61  6.0000000000000E-01 -7.0323351119029E-02  1.3915228369831E+00
62  6.1000000000000E-01 -1.6345676212769E-01  1.4048987793196E+00
63  6.2000000000000E-01 -2.5321895437608E-01  1.4166027215256E+00
64  6.3000000000000E-01 -3.3924655706483E-01  1.4265883517681E+00
65  6.4000000000000E-01 -4.2122460485163E-01  1.4348132420139E+00
66  6.5000000000000E-01 -4.9888571103061E-01  1.4412392753513E+00
67  6.6000000000000E-01 -5.7200839650844E-01  1.4458330874183E+00
68  6.7000000000000E-01 -6.4041466451588E-01  1.4485665139891E+00
69  6.8000000000000E-01 -7.0396692804465E-01  1.4494170359721E+00
70  6.9000000000000E-01 -7.6256441114741E-01  1.4483682124704E+00
71  7.0000000000000E-01 -8.1613915610977E-01  1.4454100921603E+00
72  7.1000000000000E-01 -8.6465177581198E-01  1.4405395930840E+00
73  7.2000000000000E-01 -9.0808709414069E-01  1.4337608410210E+00
74  7.3000000000000E-01 -9.4644981698793E-01  1.4250854569270E+00
75  7.4000000000000E-01 -9.7976037217789E-01  1.4145327844887E+00
76  7.5000000000000E-01 -1.0080510486923E+00  1.4021300496376E+00
77  7.6000000000000E-01 -1.0313625540145E+00  1.3879124448902E+00
78  7.7000000000000E-01 -1.0497410935749E+00  1.3719231325998E+00
79  7.8000000000000E-01 -1.0632360585338E+00  1.3542131626091E+00
80  7.9000000000000E-01 -1.0718983879429E+00  1.3348413013418E+00
81  8.0000000000000E-01 -1.0757796492122E+00  1.3138737710386E+00
82  8.1000000000000E-01 -1.0749318573535E+00  1.2913838995852E+00
83  8.2000000000000E-01 -1.0694080293147E+00  1.2674516831644E+00
84  8.3000000000000E-01 -1.0592634454874E+00  1.2421632657440E+00
85  8.4000000000000E-01 -1.0445575668532E+00  1.2156103411466E+00
86  8.5000000000000E-01 -1.0253565338513E+00  1.1878894850976E+00
87  8.6000000000000E-01 -1.0017361525572E+00  1.1591014261695E+00
88  8.7000000000000E-01 -9.7378525571698E-01  1.1293502658977E+00
89  8.8000000000000E-01 -9.4160931113072E-01  1.0987426595039E+00
90  8.9000000000000E-01 -9.0533413826354E-01  1.0673869695935E+00
91  9.0000000000000E-01 -8.6510958615847E-01  1.0353924058701E+00
92  9.1000000000000E-01 -8.2111302200566E-01  1.0028681643170E+00
93  9.2000000000000E-01 -7.7355248025668E-01  9.6992257941214E-01
94  9.3000000000000E-01 -7.2266932702436E-01  9.3666230277449E-01
95  9.4000000000000E-01 -6.6874030362383E-01  9.0319152117449E-01
96  9.5000000000000E-01 -6.1207882632859E-01  8.6961122609751E-01