Th    ONCVPSP-4.0.1  r_core=   1.25651   1.25651   1.30243   1.45050
90.0000     30.0000      220325    zatom,zion,pspd
8      11   3     4   600     0    pspcod,pspxc,lmax,lloc,mmax,r2well
5.99000000  5.00000000  0.00000000    rchrg fchrg qchrg
3     2     2     2     0    nproj
1     1           extension_switch
0                         2.3587160202788E+01  3.2415062604903E+00 -4.4196260397577E-01
1  0.0000000000000E+00 -2.4757698113831E-08  5.9731046553324E-08 -5.5518657948728E-07
2  1.0000000000000E-02  1.1472662652215E-01 -3.9597529925523E-02  1.7060530094273E-01
3  2.0000000000000E-02  2.2889587094045E-01 -7.8490724499699E-02  3.3630998687329E-01
4  3.0000000000000E-02  3.4195751204618E-01 -1.1599083275466E-01  4.9236499760549E-01
5  4.0000000000000E-02  4.5337544849792E-01 -1.5143978603300E-01  6.3431961459670E-01
6  5.0000000000000E-02  5.6263426068894E-01 -1.8422433926090E-01  7.5815886216660E-01
7  6.0000000000000E-02  6.6924519358636E-01 -2.1378881734691E-01  8.6042720162635E-01
8  7.0000000000000E-02  7.7275139794889E-01 -2.3964607511680E-01  9.3833462928187E-01
9  8.0000000000000E-02  8.7273229208843E-01 -2.6138633892561E-01  9.8984184446138E-01
10  9.0000000000000E-02  9.6880693569610E-01 -2.7868366892909E-01  1.0137218141430E+00
11  1.0000000000000E-01  1.0606363402247E+00 -2.9129986058555E-01  1.0095958056111E+00
12  1.1000000000000E-01  1.1479246757999E+00 -2.9908568963728E-01  9.7794276436297E-01
13  1.2000000000000E-01  1.2304193714289E+00 -3.0197949372598E-01  9.2008175581074E-01
14  1.3000000000000E-01  1.3079101421545E+00 -3.0000317295034E-01  8.3812803962677E-01
15  1.4000000000000E-01  1.3802270125100E+00 -2.9325577808660E-01  7.3492417802220E-01
16  1.5000000000000E-01  1.4472374389708E+00 -2.8190493595693E-01  6.1394836752362E-01
17  1.6000000000000E-01  1.5088426639292E+00 -2.6617643382161E-01  4.7920290300905E-01
18  1.7000000000000E-01  1.5649734590213E+00 -2.4634234623641E-01  3.3508631011843E-01
19  1.8000000000000E-01  1.6155854355485E+00 -2.2270813645640E-01  1.8625319779200E-01
20  1.9000000000000E-01  1.6606541135484E+00 -1.9559919851028E-01  3.7466270264439E-02
21  2.0000000000000E-01  1.7001699483099E+00 -1.6534732432127E-01 -1.0655481498104E-01
22  2.1000000000000E-01  1.7341335135043E+00 -1.3227758204679E-01 -2.4128295788568E-01
23  2.2000000000000E-01  1.7625510335811E+00 -9.6696077025862E-02 -3.6252676227956E-01
24  2.3000000000000E-01  1.7854304448387E+00 -5.8879035798693E-02 -4.6656278775427E-01
25  2.4000000000000E-01  1.8027781450380E+00 -1.9063607569649E-02 -5.5025272253745E-01
26  2.5000000000000E-01  1.8145965662093E+00  2.2559282286450E-02 -6.1114177157121E-01
27  2.6000000000000E-01  1.8208826752218E+00  6.5849763572986E-02 -6.4753515008628E-01
28  2.7000000000000E-01  1.8216274727445E+00  1.1072135524045E-01 -6.5855026767095E-01
29  2.8000000000000E-01  1.8168165245326E+00  1.5714070729879E-01 -6.4414295912484E-01
30  2.9000000000000E-01  1.8064315207610E+00  2.0512474732406E-01 -6.0510694179608E-01
31  3.0000000000000E-01  1.7904528206771E+00  2.5473532024682E-01 -5.4304652843084E-01
32  3.1000000000000E-01  1.7688629024484E+00  3.0607149975382E-01 -4.6032347284354E-01
33  3.2000000000000E-01  1.7416506030268E+00  3.5925983384850E-01 -3.5997964592779E-01
34  3.3000000000000E-01  1.7088160013247E+00  4.1444286302373E-01 -2.4563800556623E-01
35  3.4000000000000E-01  1.6703757711141E+00  4.7176631449035E-01 -1.2138501144454E-01
36  3.5000000000000E-01  1.6263688087444E+00  5.3136542771770E-01  8.3617772392127E-03
37  3.6000000000000E-01  1.5768619258175E+00  5.9335090334036E-01  1.3899671538789E-01
38  3.7000000000000E-01  1.5219553889043E+00  6.5779498793193E-01  2.6587515740347E-01
39  3.8000000000000E-01  1.4617880875847E+00  7.2471821043712E-01  3.8446388574022E-01
40  3.9000000000000E-01  1.3965421186302E+00  7.9407727195933E-01  4.9048811546322E-01
41  4.0000000000000E-01  1.3264465878833E+00  8.6575455947203E-01  5.8007042084205E-01
42  4.1000000000000E-01  1.2517804519369E+00  9.3954970677859E-01  6.4985719112440E-01
43  4.2000000000000E-01  1.1728742484504E+00  1.0151735641599E+00  6.9712862312306E-01
44  4.3000000000000E-01  1.0901105960501E+00  1.0922448635827E+00  7.1988878513139E-01
45  4.4000000000000E-01  1.0039233812240E+00  1.1702897815000E+00  7.1693292284612E-01
46  4.5000000000000E-01  9.1479558928379E-01  1.2487445089142E+00  6.8788990283722E-01
47  4.6000000000000E-01  8.2325577805445E-01  1.3269608415164E+00  6.3323847923220E-01
48  4.7000000000000E-01  7.2987323511990E-01  1.4042147045567E+00  5.5429689913345E-01
49  4.8000000000000E-01  6.3525190083239E-01  1.4797174308791E+00  4.5318620513490E-01
50  4.9000000000000E-01  5.4002317853209E-01  1.5526295194727E+00  3.3276842200078E-01
51  5.0000000000000E-01  4.4483778923629E-01  1.6220765189857E+00  1.9656160249060E-01
52  5.1000000000000E-01  3.5035685926755E-01  1.6871666086925E+00  4.8634429282841E-02
53  5.2000000000000E-01  2.5724245486576E-01  1.7470093908134E+00 -1.0651629708249E-01
54  5.3000000000000E-01  1.6614779692561E-01  1.8007353648455E+00 -2.6410143033560E-01
55  5.4000000000000E-01  7.7707400981538E-02  1.8475155281292E+00 -4.1918425822595E-01
56  5.5000000000000E-01 -7.4726079714330E-03  1.8865805381675E+00 -5.6682977648965E-01
57  5.6000000000000E-01 -8.8823759436761E-02  1.9172388815442E+00 -7.0225382807226E-01
58  5.7000000000000E-01 -1.6582384454340E-01  1.9388935213655E+00 -8.2096751127139E-01
59  5.8000000000000E-01 -2.3800464872083E-01  1.9510565391012E+00 -9.1891243935793E-01
60  5.9000000000000E-01 -3.0495861692589E-01  1.9533613460697E+00 -9.9258275259432E-01
61  6.0000000000000E-01 -3.6634428887319E-01  1.9455721126410E+00 -1.0391302300577E+00
62  6.1000000000000E-01 -4.2189037699886E-01  1.9275901471019E+00 -1.0564494078658E+00
63  6.2000000000000E-01 -4.7139839883883E-01  1.8994570482661E+00 -1.0432402631524E+00
64  6.3000000000000E-01 -5.1474381686087E-01  1.8613545532608E+00 -9.9904674746183E-01
65  6.4000000000000E-01 -5.5187568120715E-01  1.8136011012720E+00 -9.2427022484070E-01
66  6.5000000000000E-01 -5.8281481291228E-01  1.7566452321021E+00 -8.2015766321835E-01
67  6.6000000000000E-01 -6.0765060560865E-01  1.6910560319839E+00 -6.8876521658535E-01
68  6.7000000000000E-01 -6.2653656122800E-01  1.6175109251443E+00 -5.3289859420353E-01
69  6.8000000000000E-01 -6.3968470858201E-01  1.5367811853594E+00 -3.5603231722155E-01
70  6.9000000000000E-01 -6.4735908192427E-01  1.4497156047737E+00 -1.6221059012963E-01
71  7.0000000000000E-01 -6.4986845881759E-01  1.3572228056102E+00  4.4066955127862E-02
72  7.1000000000000E-01 -6.4755857221905E-01  1.2602527126383E+00  2.5797096700732E-01
73  7.2000000000000E-01 -6.4080402024725E-01  1.1597777194907E+00  4.7447556634430E-01
74  7.3000000000000E-01 -6.3000009844846E-01  1.0567740798369E+00  6.8849489509522E-01
75  7.4000000000000E-01 -6.1555477361510E-01  9.5220403531164E-01  8.9501887126251E-01
76  7.5000000000000E-01 -5.9788100565362E-01  8.4699915682739E-01  1.0892441112277E+00
77  7.6000000000000E-01 -5.7738960519471E-01  7.4204532586461E-01  1.2666962217677E+00
78  7.7000000000000E-01 -5.5448279033873E-01  6.3816971942380E-01  1.4233400242711E+00
79  7.8000000000000E-01 -5.2954857705417E-01  5.3613008882420E-01  1.5556747392098E+00
80  7.9000000000000E-01 -5.0295610536148E-01  4.3660654107205E-01  1.6608117124750E+00
81  8.0000000000000E-01 -4.7505196869379E-01  3.4019594493323E-01  1.7365328868670E+00
82  8.1000000000000E-01 -4.4615757795040E-01  2.4740899510939E-01  1.7813288898193E+00
83  8.2000000000000E-01 -4.1656755597551E-01  1.5866988001892E-01  1.7944162991803E+00
84  8.3000000000000E-01 -3.8654912369918E-01  7.4318414521892E-02  1.7757343389710E+00
85  8.4000000000000E-01 -3.5634240709639E-01 -5.3855787811178E-03  1.7259219231647E+00
86  8.5000000000000E-01 -3.2616156546656E-01 -8.0255924871988E-02  1.6462765855487E+00
87  8.6000000000000E-01 -2.9619661717969E-01 -1.5017213132112E-01  1.5386973871992E+00
88  8.7000000000000E-01 -2.6661581967937E-01 -2.1507019128694E-01  1.4056143620151E+00
89  8.8000000000000E-01 -2.3756844668498E-01 -2.7493257426828E-01  1.2499074299685E+00
90  8.9000000000000E-01 -2.0918779751025E-01 -3.2977784132099E-01  1.0748179652955E+00
91  9.0000000000000E-01 -1.8159427131470E-01 -3.7965032371546E-01  8.8385634434594E-01
92  9.1000000000000E-01 -1.5489834283956E-01 -4.2461029188401E-01  6.8070881027107E-01
93  9.2000000000000E-01 -1.2920328546855E-01 -4.6472501573479E-01  4.6914687775488E-01
94  9.3000000000000E-01 -1.0460750185483E-01 -5.0006107914326E-01  2.5294226236471E-01
95  9.4000000000000E-01 -8.1206341282380E-02 -5.3067826216694E-01  3.5789960659832E-02
96  9.5000000000000E-01 -5.9093305697990E-02 -5.5662524599854E-01 -1.7875836387096E-01
97  9.6000000000000E-01 -3.8360572201845E-02 -5.7793732978913E-01 -3.8734910844095E-01
98  9.7000000000000E-01 -1.9098787930161E-02 -5.9463627721903E-01 -5.8686865880607E-01
99  9.8000000000000E-01 -1.3961229411780E-03 -6.0673233598571E-01 -7.7447235306608E-01
100  9.9000000000000E-01  1.4663402817073E-02 -6.1422839707919E-01 -9.4760113627848E-01
101  1.0000000000000E+00  2.9002271704246E-02 -6.1712618429469E-01 -1.1039874405952E+00
102  1.0100000000000E+00  4.1552422652170E-02 -6.1543428924796E-01 -1.2416527559438E+00
103  1.0200000000000E+00  5.2258700685390E-02 -6.0917779399204E-01 -1.3589003305103E+00
104  1.0300000000000E+00  6.1082665938368E-02 -5.9840915254960E-01 -1.4543074539868E+00
105  1.0400000000000E+00  6.8006598135696E-02 -5.8321993409267E-01 -1.5267228284545E+00
106  1.0500000000000E+00  7.3037504618915E-02 -5.6375296346709E-01 -1.5752756220906E+00
107  1.0600000000000E+00  7.6210911892173E-02 -5.4021432779531E-01 -1.5994039371615E+00
108  1.0700000000000E+00  7.7594191525341E-02 -5.1288464909857E-01 -1.5989116142761E+00
109  1.0800000000000E+00  7.7289140115682E-02 -4.8212894987912E-01 -1.5740635492863E+00
110  1.0900000000000E+00  7.5433499946789E-02 -4.4840436460922E-01 -1.5257311672531E+00
111  1.1000000000000E+00  7.2201046710572E-02 -4.1226476942567E-01 -1.4555995756284E+00
112  1.1100000000000E+00  6.7799465073389E-02 -3.7435979331531E-01 -1.3664249668675E+00
113  1.1200000000000E+00  6.2458258996102E-02 -3.3539555250113E-01 -1.2617767867811E+00
114  1.1300000000000E+00  5.6412829329879E-02 -2.9607841777442E-01 -1.1453558463658E+00
115  1.1400000000000E+00  4.9898615605753E-02 -2.5709924500649E-01 -1.0208327719341E+00
116  1.1500000000000E+00  4.3146592949216E-02 -2.1912369014872E-01 -8.9179287517526E-01
117  1.1600000000000E+00  3.6378491748510E-02 -1.8278181126751E-01 -7.6168701858773E-01
118  1.1700000000000E+00  2.9801856738104E-02 -1.4865722620959E-01 -6.3378894731421E-01
119  1.1800000000000E+00  2.3604974519576E-02 -1.1727587351526E-01 -5.1115968721817E-01
120  1.1900000000000E+00  1.7952428003118E-02 -8.9096259532119E-02 -3.9661567428943E-01
121  1.2000000000000E+00  1.2960576207491E-02 -6.4448907517958E-02 -2.9282223115199E-01
122  1.2100000000000E+00  8.6854406323899E-03 -4.3505328542204E-02 -2.0232316951458E-01
123  1.2200000000000E+00  5.2341593598242E-03 -2.6562057514234E-02 -1.2685104382686E-01
124  1.2300000000000E+00  2.6658517377060E-03 -1.3793734408296E-02 -6.7883302503850E-02
125  1.2400000000000E+00  9.8580772956369E-04 -5.2390950789591E-03 -2.6670885884563E-02
126  1.2500000000000E+00  1.4636140172237E-04 -8.0603439784173E-04 -4.2626759515061E-03
127  1.2600000000000E+00 -8.6753941701907E-06  4.9295514961451E-05  2.6876793331008E-04
128  1.2700000000000E+00  1.5379115571886E-06 -8.6193625235738E-06 -4.6404399969597E-05
129  1.28 -0.  0. -0.
130  1.29  0.  0.  0.
131  1.30  0.  0.  0.
132  1.31  0.  0.  0.
133  1.32  0.  0.  0.
134  1.33  0.  0.  0.
135  1.34  0.  0.  0.
136  1.35  0.  0.  0.
137  1.36  0.  0.  0.
138  1.37  0.  0.  0.
139  1.38  0.  0.  0.
140  1.39  0.  0.  0.
141  1.40  0.  0.  0.
142  1.41  0.  0.  0.
143  1.42  0.  0.  0.
144  1.43  0.  0.  0.
145  1.44  0.  0.  0.
146  1.45  0.  0.  0.
147  1.46  0.  0.  0.
148  1.47  0.  0.  0.
149  1.48  0.  0.  0.
150  1.49  0.  0.  0.
151  1.50  0.  0.  0.
152  1.51  0.  0.  0.
153  1.52  0.  0.  0.
154  1.53  0.  0.  0.
155  1.54  0.  0.  0.
156  1.55  0.  0.  0.
157  1.56  0.  0.  0.
158  1.57  0.  0.  0.
159  1.58  0.  0.  0.
160  1.59  0.  0.  0.
161  1.60  0.  0.  0.
162  1.61  0.  0.  0.
163  1.62  0.  0.  0.
164  1.63  0.  0.  0.
165  1.64  0.  0.  0.
166  1.65  0.  0.  0.
167  1.66  0.  0.  0.
168  1.67  0.  0.  0.
169  1.68  0.  0.  0.
170  1.69  0.  0.  0.
171  1.70  0.  0.  0.
172  1.71  0.  0.  0.
173  1.72  0.  0.  0.
174  1.73  0.  0.  0.
175  1.74  0.  0.  0.
176  1.75  0.  0.  0.
177  1.76  0.  0.  0.
178  1.77  0.  0.  0.
179  1.78  0.  0.  0.
180  1.79  0.  0.  0.
181  1.80  0.  0.  0.
182  1.81  0.  0.  0.
183  1.82  0.  0.  0.
184  1.83  0.  0.  0.
185  1.84  0.  0.  0.
186  1.85  0.  0.  0.
187  1.86  0.  0.  0.
188  1.87  0.  0.  0.
189  1.88  0.  0.  0.
190  1.89  0.  0.  0.
191  1.90  0.  0.  0.
192  1.91  0.  0.  0.
193  1.92  0.  0.  0.
194  1.93  0.  0.  0.
195  1.94  0.  0.  0.
196  1.95  0.  0.  0.
197  1.96  0.  0.  0.
198  1.97  0.  0.  0.
199  1.98  0.  0.  0.
200  1.99  0.  0.  0.
201  2.00  0.  0.  0.
202  2.01  0.  0.  0.
203  2.02  0.  0.  0.
204  2.03  0.  0.  0.
205  2.04  0.  0.  0.
206  2.05  0.  0.  0.
207  2.06  0.  0.  0.
208  2.07  0.  0.  0.
209  2.08  0.  0.  0.
210  2.09  0.  0.  0.
211  2.10  0.  0.  0.
212  2.11  0.  0.  0.
213  2.12  0.  0.  0.
214  2.13  0.  0.  0.
215  2.14  0.  0.  0.
216  2.15  0.  0.  0.
217  2.16  0.  0.  0.
218  2.17  0.  0.  0.
219  2.18  0.  0.  0.
220  2.19  0.  0.  0.
221  2.20  0.  0.  0.
222  2.21  0.  0.  0.
223  2.22  0.  0.  0.
224  2.23  0.  0.  0.
225  2.24  0.  0.  0.
226  2.25  0.  0.  0.
227  2.26  0.  0.  0.
228  2.27  0.  0.  0.
229  2.28  0.  0.  0.
230  2.29  0.  0.  0.
231  2.30  0.  0.  0.
232  2.31  0.  0.  0.
233  2.32  0.  0.  0.
234  2.33  0.  0.  0.
235  2.34  0.  0.  0.
236  2.35  0.  0.  0.
237  2.36  0.  0.  0.
238  2.37  0.  0.  0.
239  2.38  0.  0.  0.
240  2.39  0.  0.  0.
241  2.40  0.  0.  0.
242  2.41  0.  0.  0.
243  2.42  0.  0.  0.
244  2.43  0.  0.  0.
245  2.44  0.  0.  0.
246  2.45  0.  0.  0.
247  2.46  0.  0.  0.
248  2.47  0.  0.  0.
249  2.48  0.  0.  0.
250  2.49  0.  0.  0.
251  2.50  0.  0.  0.
252  2.51  0.  0.  0.
253  2.52  0.  0.  0.
254  2.53  0.  0.  0.
255  2.54  0.  0.  0.
256  2.55  0.  0.  0.
257  2.56  0.  0.  0.
258  2.57  0.  0.  0.
259  2.58  0.  0.  0.
260  2.59  0.  0.  0.
261  2.60  0.  0.  0.
262  2.61  0.  0.  0.
263  2.62  0.  0.  0.
264  2.63  0.  0.  0.
265  2.64  0.  0.  0.
266  2.65  0.  0.  0.
267  2.66  0.  0.  0.
268  2.67  0.  0.  0.
269  2.68  0.  0.  0.
270  2.69  0.  0.  0.
271  2.70  0.  0.  0.
272  2.71  0.  0.  0.
273  2.72  0.  0.  0.
274  2.73  0.  0.  0.
275  2.74  0.  0.  0.
276  2.75  0.  0.  0.
277  2.76  0.  0.  0.
278  2.77  0.  0.  0.
279  2.78  0.  0.  0.
280  2.79  0.  0.  0.
281  2.80  0.  0.  0.
282  2.81  0.  0.  0.
283  2.82  0.  0.  0.
284  2.83  0.  0.  0.
285  2.84  0.  0.  0.
286  2.85  0.  0.  0.
287  2.86  0.  0.  0.
288  2.87  0.  0.  0.
289  2.88  0.  0.  0.
290  2.89  0.  0.  0.
291  2.90  0.  0.  0.
292  2.91  0.  0.  0.
293  2.92  0.  0.  0.
294  2.93  0.  0.  0.
295  2.94  0.  0.  0.
296  2.95  0.  0.  0.
297  2.96  0.  0.  0.
298  2.97  0.  0.  0.
299  2.98  0.  0.  0.
300  2.99  0.  0.  0.
301  3.00  0.  0.  0.
302  3.01  0.  0.  0.
303  3.02  0.  0.  0.
304  3.03  0.  0.  0.
305  3.04  0.  0.  0.
306  3.05  0.  0.  0.
307  3.06  0.  0.  0.
308  3.07  0.  0.  0.
309  3.08  0.  0.  0.
310  3.09  0.  0.  0.
311  3.10  0.  0.  0.
312  3.11  0.  0.  0.
313  3.12  0.  0.  0.
314  3.13  0.  0.  0.
315  3.14  0.  0.  0.
316  3.15  0.  0.  0.
317  3.16  0.  0.  0.
318  3.17  0.  0.  0.
319  3.18  0.  0.  0.
320  3.19  0.  0.  0.
321  3.20  0.  0.  0.
322  3.21  0.  0.  0.
323  3.22  0.  0.  0.
324  3.23  0.  0.  0.
325  3.24  0.  0.  0.
326  3.25  0.  0.  0.
327  3.26  0.  0.  0.
328  3.27  0.  0.  0.
329  3.28  0.  0.  0.
330  3.29  0.  0.  0.
331  3.30  0.  0.  0.
332  3.31  0.  0.  0.
333  3.32  0.  0.  0.
334  3.33  0.  0.  0.
335  3.34  0.  0.  0.
336  3.35  0.  0.  0.
337  3.36  0.  0.  0.
338  3.37  0.  0.  0.
339  3.38  0.  0.  0.
340  3.39  0.  0.  0.
341  3.40  0.  0.  0.
342  3.41  0.  0.  0.
343  3.42  0.  0.  0.
344  3.43  0.  0.  0.
345  3.44  0.  0.  0.
346  3.45  0.  0.  0.
347  3.46  0.  0.  0.
348  3.47  0.  0.  0.
349  3.48  0.  0.  0.
350  3.49  0.  0.  0.
351  3.50  0.  0.  0.
352  3.51  0.  0.  0.
353  3.52  0.  0.  0.
354  3.53  0.  0.  0.
355  3.54  0.  0.  0.
356  3.55  0.  0.  0.
357  3.56  0.  0.  0.
358  3.57  0.  0.  0.
359  3.58  0.  0.  0.
360  3.59  0.  0.  0.
361  3.60  0.  0.  0.
362  3.61  0.  0.  0.
363  3.62  0.  0.  0.
364  3.63  0.  0.  0.
365  3.64  0.  0.  0.
366  3.65  0.  0.  0.
367  3.66  0.  0.  0.
368  3.67  0.  0.  0.
369  3.68  0.  0.  0.
370  3.69  0.  0.  0.
371  3.70  0.  0.  0.
372  3.71  0.  0.  0.
373  3.72  0.  0.  0.
374  3.73  0.  0.  0.
375  3.74  0.  0.  0.
376  3.75  0.  0.  0.
377  3.76  0.  0.  0.
378  3.77  0.  0.  0.
379  3.78  0.  0.  0.
380  3.79  0.  0.  0.
381  3.80  0.  0.  0.
382  3.81  0.  0.  0.
383  3.82  0.  0.  0.
384  3.83  0.  0.  0.
385  3.84  0.  0.  0.
386  3.85  0.  0.  0.
387  3.86  0.  0.  0.
388  3.87  0.  0.  0.
389  3.88  0.  0.  0.
390  3.89  0.  0.  0.
391  3.90  0.  0.  0.
392  3.91  0.  0.  0.
393  3.92  0.  0.  0.
394  3.93  0.  0.  0.
395  3.94  0.  0.  0.
396  3.95  0.  0.  0.
397  3.96  0.  0.  0.
398  3.97  0.  0.  0.
399  3.98  0.  0.  0.
400  3.99  0.  0.  0.
401  4.00  0.  0.  0.
402  4.01  0.  0.  0.
403  4.02  0.  0.  0.
404  4.03  0.  0.  0.
405  4.04  0.  0.  0.
406  4.05  0.  0.  0.
407  4.06  0.  0.  0.
408  4.07  0.  0.  0.
409  4.08  0.  0.  0.
410  4.09  0.  0.  0.
411  4.10  0.  0.  0.
412  4.11  0.  0.  0.
413  4.12  0.  0.  0.
414  4.13  0.  0.  0.
415  4.14  0.  0.  0.
416  4.15  0.  0.  0.
417  4.16  0.  0.  0.
418  4.17  0.  0.  0.
419  4.18  0.  0.  0.
420  4.19  0.  0.  0.
421  4.20  0.  0.  0.
422  4.21  0.  0.  0.
423  4.22  0.  0.  0.
424  4.23  0.  0.  0.
425  4.24  0.  0.  0.
426  4.25  0.  0.  0.
427  4.26  0.  0.  0.
428  4.27  0.  0.  0.
429  4.28  0.  0.  0.
430  4.29  0.  0.  0.
431  4.30  0.  0.  0.
432  4.31  0.  0.  0.
433  4.32  0.  0.  0.
434  4.33  0.  0.  0.
435  4.34  0.  0.  0.
436  4.35  0.  0.  0.
437  4.36  0.  0.  0.
438  4.37  0.  0.  0.
439  4.38  0.  0.  0.
440  4.39  0.  0.  0.
441  4.40  0.  0.  0.
442  4.41  0.  0.  0.
443  4.42  0.  0.  0.
444  4.43  0.  0.  0.
445  4.44  0.  0.  0.
446  4.45  0.  0.  0.
447  4.46  0.  0.  0.
448  4.47  0.  0.  0.
449  4.48  0.  0.  0.
450  4.49  0.  0.  0.
451  4.50  0.  0.  0.
452  4.51  0.  0.  0.
453  4.52  0.  0.  0.
454  4.53  0.  0.  0.
455  4.54  0.  0.  0.
456  4.55  0.  0.  0.
457  4.56  0.  0.  0.
458  4.57  0.  0.  0.
459  4.58  0.  0.  0.
460  4.59  0.  0.  0.
461  4.60  0.  0.  0.
462  4.61  0.  0.  0.
463  4.62  0.  0.  0.
464  4.63  0.  0.  0.
465  4.64  0.  0.  0.
466  4.65  0.  0.  0.
467  4.66  0.  0.  0.
468  4.67  0.  0.  0.
469  4.68  0.  0.  0.
470  4.69  0.  0.  0.
471  4.70  0.  0.  0.
472  4.71  0.  0.  0.
473  4.72  0.  0.  0.
474  4.73  0.  0.  0.
475  4.74  0.  0.  0.
476  4.75  0.  0.  0.
477  4.76  0.  0.  0.
478  4.77  0.  0.  0.
479  4.78  0.  0.  0.
480  4.79  0.  0.  0.
481  4.80  0.  0.  0.
482  4.81  0.  0.  0.
483  4.82  0.  0.  0.
484  4.83  0.  0.  0.
485  4.84  0.  0.  0.
486  4.85  0.  0.  0.
487  4.86  0.  0.  0.
488  4.87  0.  0.  0.
489  4.88  0.  0.  0.
490  4.89  0.  0.  0.
491  4.90  0.  0.  0.
492  4.91  0.  0.  0.
493  4.92  0.  0.  0.
494  4.93  0.  0.  0.
495  4.94  0.  0.  0.
496  4.95  0.  0.  0.
497  4.96  0.  0.  0.
498  4.97  0.  0.  0.
499  4.98  0.  0.  0.
500  4.99  0.  0.  0.
501  5.00  0.  0.  0.
502  5.01  0.  0.  0.
503  5.02  0.  0.  0.
504  5.03  0.  0.  0.
505  5.04  0.  0.  0.
506  5.05  0.  0.  0.
507  5.06  0.  0.  0.
508  5.07  0.  0.  0.
509  5.08  0.  0.  0.
510  5.09  0.  0.  0.
511  5.10  0.  0.  0.
512  5.11  0.  0.  0.
513  5.12  0.  0.  0.
514  5.13  0.  0.  0.
515  5.14  0.  0.  0.
516  5.15  0.  0.  0.
517  5.16  0.  0.  0.
518  5.17  0.  0.  0.
519  5.18  0.  0.  0.
520  5.19  0.  0.  0.
521  5.20  0.  0.  0.
522  5.21  0.  0.  0.
523  5.22  0.  0.  0.
524  5.23  0.  0.  0.
525  5.24  0.  0.  0.
526  5.25  0.  0.  0.
527  5.26  0.  0.  0.
528  5.27  0.  0.  0.
529  5.28  0.  0.  0.
530  5.29  0.  0.  0.
531  5.30  0.  0.  0.
532  5.31  0.  0.  0.
533  5.32  0.  0.  0.
534  5.33  0.  0.  0.
535  5.34  0.  0.  0.
536  5.35  0.  0.  0.
537  5.36  0.  0.  0.
538  5.37  0.  0.  0.
539  5.38  0.  0.  0.
540  5.39  0.  0.  0.
541  5.40  0.  0.  0.
542  5.41  0.  0.  0.
543  5.42  0.  0.  0.
544  5.43  0.  0.  0.
545  5.44  0.  0.  0.
546  5.45  0.  0.  0.
547  5.46  0.  0.  0.
548  5.47  0.  0.  0.
549  5.48  0.  0.  0.
550  5.49  0.  0.  0.
551  5.50  0.  0.  0.
552  5.51  0.  0.  0.
553  5.52  0.  0.  0.
554  5.53  0.  0.  0.
555  5.54  0.  0.  0.
556  5.55  0.  0.  0.
557  5.56  0.  0.  0.
558  5.57  0.  0.  0.
559  5.58  0.  0.  0.
560  5.59  0.  0.  0.
561  5.60  0.  0.  0.
562  5.61  0.  0.  0.
563  5.62  0.  0.  0.
564  5.63  0.  0.  0.
565  5.64  0.  0.  0.
566  5.65  0.  0.  0.
567  5.66  0.  0.  0.
568  5.67  0.  0.  0.
569  5.68  0.  0.  0.
570  5.69  0.  0.  0.
571  5.70  0.  0.  0.
572  5.71  0.  0.  0.
573  5.72  0.  0.  0.
574  5.73  0.  0.  0.
575  5.74  0.  0.  0.
576  5.75  0.  0.  0.
577  5.76  0.  0.  0.
578  5.77  0.  0.  0.
579  5.78  0.  0.  0.
580  5.79  0.  0.  0.
581  5.80  0.  0.  0.
582  5.81  0.  0.  0.
583  5.82  0.  0.  0.
584  5.83  0.  0.  0.
585  5.84  0.  0.  0.
586  5.85  0.  0.  0.
587  5.86  0.  0.  0.
588  5.87  0.  0.  0.
589  5.88  0.  0.  0.
590  5.89  0.  0.  0.
591  5.90  0.  0.  0.
592  5.91  0.  0.  0.
593  5.92  0.  0.  0.
594  5.93  0.  0.  0.
595  5.94  0.  0.  0.
596  5.95  0.  0.  0.
597  5.96  0.  0.  0.
598  5.97  0.  0.  0.
599  5.98  0.  0.  0.
600  5.99  0.  0.  0.
1                         1.9261619976540E+01  2.5578478474043E+00
1  0.0000000000000E+00 -7.2481285140480E-09  1.6867400184917E-08
2  1.0000000000000E-02  3.7858628744991E-03 -1.1231497370117E-03
3  2.0000000000000E-02  1.5117820146493E-02 -4.4817650948468E-03
4  3.0000000000000E-02  3.3919006949597E-02 -1.0043160386573E-02
5  4.0000000000000E-02  6.0061417663822E-02 -1.7752257289655E-02
6  5.0000000000000E-02  9.3366077635772E-02 -2.7530721700107E-02
7  6.0000000000000E-02  1.3360331882569E-01 -3.9275834110325E-02
8  7.0000000000000E-02  1.8049319294064E-01 -5.2859168933475E-02
9  8.0000000000000E-02  2.3370606286134E-01 -6.8125175064672E-02
10  9.0000000000000E-02  2.9286341876404E-01 -8.4889763525310E-02
11  1.0000000000000E-01  3.5753896902129E-01 -1.0293901776197E-01
12  1.1000000000000E-01  4.2726005753578E-01 -1.2202814766378E-01
13  1.2000000000000E-01  5.0150945849152E-01 -1.4188080935454E-01
14  1.3000000000000E-01  5.7972759653414E-01 -1.6218890918117E-01
15  1.4000000000000E-01  6.6131523513354E-01 -1.8261300207769E-01
16  1.5000000000000E-01  7.4563666842602E-01 -2.0278338180331E-01
17  1.6000000000000E-01  8.3202344234200E-01 -2.2230194374399E-01
18  1.7000000000000E-01  9.1977861952913E-01 -2.4074488047619E-01
19  1.8000000000000E-01  1.0081815897740E+00 -2.5766624669173E-01
20  1.9000000000000E-01  1.0964934136556E+00 -2.7260240404947E-01
21  2.0000000000000E-01  1.1839626724217E+00 -2.8507732882172E-01
22  2.1000000000000E-01  1.2698317819977E+00 -2.9460873667232E-01
23  2.2000000000000E-01  1.3533437140528E+00 -3.0071495041420E-01
24  2.3000000000000E-01  1.4337490526303E+00 -3.0292240903773E-01
25  2.4000000000000E-01  1.5103133014376E+00 -3.0077369055679E-01
26  2.5000000000000E-01  1.5823243449238E+00 -2.9383589813028E-01
27  2.6000000000000E-01  1.6490999561494E+00 -2.8170923926119E-01
28  2.7000000000000E-01  1.7099952365270E+00 -2.6403561234575E-01
29  2.8000000000000E-01  1.7644098670899E+00 -2.4050700402345E-01
30  2.9000000000000E-01  1.8117950482522E+00 -2.1087349511681E-01
31  3.0000000000000E-01  1.8516600052397E+00 -1.7495067275871E-01
32  3.1000000000000E-01  1.8835779395567E+00 -1.3262625173451E-01
33  3.2000000000000E-01  1.9071913130309E+00 -8.3865719109935E-02
34  3.3000000000000E-01  1.9222163600514E+00 -2.8716832694925E-02
35  3.4000000000000E-01  1.9284467354195E+00  3.2687174526142E-02
36  3.5000000000000E-01  1.9257562195264E+00  1.0012580568104E-01
37  3.6000000000000E-01  1.9141004190373E+00  1.7329101853749E-01
38  3.7000000000000E-01  1.8935174195042E+00  2.5178850942781E-01
39  3.8000000000000E-01  1.8641273659314E+00  3.3514058501422E-01
40  3.9000000000000E-01  1.8261309677708E+00  4.2279060723209E-01
41  4.0000000000000E-01  1.7798069456447E+00  5.1410895924914E-01
42  4.1000000000000E-01  1.7255084577308E+00  6.0840044341850E-01
43  4.2000000000000E-01  1.6636585636912E+00  7.0491298700260E-01
44  4.3000000000000E-01  1.5947448027593E+00  8.0284749889781E-01
45  4.4000000000000E-01  1.5193129796432E+00  9.0136869161797E-01
46  4.5000000000000E-01  1.4379602668173E+00  9.9961665823633E-01
47  4.6000000000000E-01  1.3513277441787E+00  1.0967189745514E+00
48  4.7000000000000E-01  1.2600925066315E+00  1.1918030830116E+00
49  4.8000000000000E-01  1.1649594766880E+00  1.2840087073208E+00
50  4.9000000000000E-01  1.0666530624979E+00  1.3725000453977E+00
51  5.0000000000000E-01  9.6590880177509E-01  1.4564774935357E+00
52  5.1000000000000E-01  8.6346512891069E-01  1.5351886660931E+00
53  5.2000000000000E-01  7.6005539626693E-01  1.6079384925195E+00
54  5.3000000000000E-01  6.5640027144810E-01  1.6740981965299E+00
55  5.4000000000000E-01  5.5320062052553E-01  1.7331129901218E+00
56  5.5000000000000E-01  4.5113097311784E-01  1.7845083471212E+00
57  5.6000000000000E-01  3.5083364931354E-01  1.8278947561334E+00
58  5.7000000000000E-01  2.5291361113919E-01  1.8629708901803E+00
59  5.8000000000000E-01  1.5793408312278E-01  1.8895251688595E+00
60  5.9000000000000E-01  6.6412967997573E-02  1.9074357274981E+00
61  6.0000000000000E-01 -2.1179934745748E-02  1.9166688453888E+00
62  6.1000000000000E-01 -1.0442491741613E-01  1.9172759207706E+00
63  6.2000000000000E-01 -1.8295358626705E-01  1.9093891127524E+00
64  6.3000000000000E-01 -2.5644935865734E-01  1.8932157990174E+00
65  6.4000000000000E-01 -3.2464728966478E-01  1.8690320221282E+00
66  6.5000000000000E-01 -3.8733329335943E-01  1.8371751159861E+00
67  6.6000000000000E-01 -4.4434283225548E-01  1.7980357170464E+00
68  6.7000000000000E-01 -4.9555915417918E-01  1.7520493720108E+00
69  6.8000000000000E-01 -5.4091115887077E-01  1.6996879548391E+00
70  6.9000000000000E-01 -5.8037097712149E-01  1.6414511011773E+00
71  7.0000000000000E-01 -6.1395134326320E-01  1.5778578579960E+00
72  7.1000000000000E-01 -6.4170283758326E-01  1.5094387308459E+00
73  7.2000000000000E-01 -6.6371106901248E-01  1.4367282913078E+00
74  7.3000000000000E-01 -6.8009386056748E-01  1.3602584836914E+00
75  7.4000000000000E-01 -6.9099849090469E-01  1.2805527436935E+00
76  7.5000000000000E-01 -6.9659903538092E-01  1.1981210134930E+00
77  7.6000000000000E-01 -6.9709383964269E-01  1.1134557085918E+00
78  7.7000000000000E-01 -6.9270314841413E-01  1.0270286625980E+00
79  7.8000000000000E-01 -6.8366690223002E-01  9.3928904799901E-01
80  7.9000000000000E-01 -6.7024270573826E-01  8.5066224466201E-01
81  8.0000000000000E-01 -6.5270396319659E-01  7.6154960407600E-01
82  8.1000000000000E-01 -6.3133817016591E-01  6.7232903683548E-01
83  8.2000000000000E-01 -6.0644534533518E-01  5.8335633402163E-01
84  8.3000000000000E-01 -5.7833658299003E-01  4.9496712024078E-01
85  8.4000000000000E-01 -5.4733270485652E-01  4.0747932721770E-01
86  8.5000000000000E-01 -5.1376298981191E-01  3.2119607189099E-01
87  8.6000000000000E-01 -4.7796396105915E-01  2.3640882159191E-01
88  8.7000000000000E-01 -4.4027821251873E-01  1.5340073057883E-01
89  8.8000000000000E-01 -4.0105325901998E-01  7.2450036224609E-02
90  8.9000000000000E-01 -3.6064039791313E-01 -6.1665913848815E-03
91  9.0000000000000E-01 -3.1939357244433E-01 -8.2170846833118E-02
92  9.1000000000000E-01 -2.7766822905105E-01 -1.5527982907418E-01
93  9.2000000000000E-01 -2.3582016101981E-01 -2.2520341580500E-01
94  9.3000000000000E-01 -1.9420432904616E-01 -2.9164206529386E-01
95  9.4000000000000E-01 -1.5317364448822E-01 -3.5428514367660E-01
96  9.5000000000000E-01 -1.1307769285164E-01 -4.1280988713417E-01
97  9.6000000000000E-01 -7.4261362651515E-02 -4.6688112729214E-01
98  9.7000000000000E-01 -3.7063327669941E-02 -5.1615193591353E-01
99  9.8000000000000E-01 -1.8143082096886E-03 -5.6026538270572E-01
100  9.9000000000000E-01  3.1164991223840E-02 -5.9885764885482E-01
101  1.0000000000000E+00  6.1566404760058E-02 -6.3156279976411E-01
102  1.0100000000000E+00  8.9097466351294E-02 -6.5801959411498E-01
103  1.0200000000000E+00  1.1348543479228E-01 -6.7788079342508E-01
104  1.0300000000000E+00  1.3448246263843E-01 -6.9082553720754E-01
105  1.0400000000000E+00  1.5187225071492E-01 -6.9657546395038E-01
106  1.0500000000000E+00  1.6547859844601E-01 -6.9491538731037E-01
107  1.0600000000000E+00  1.7517633571960E-01 -6.8571948030851E-01
108  1.0700000000000E+00  1.8090520421177E-01 -6.6898407759124E-01
109  1.0800000000000E+00  1.8268734452961E-01 -6.4486837608286E-01
110  1.0900000000000E+00  1.8064915642892E-01 -6.1374453432928E-01
111  1.1000000000000E+00  1.7504819853635E-01 -5.7625841007467E-01
112  1.1100000000000E+00  1.6630270499538E-01 -5.3339510518537E-01
113  1.1200000000000E+00  1.5495054886337E-01 -4.8638349035215E-01
114  1.1300000000000E+00  1.4155548564894E-01 -4.3648492155118E-01
115  1.1400000000000E+00  1.2668387193647E-01 -3.8494594445592E-01
116  1.1500000000000E+00  1.1089464438358E-01 -3.3298155106012E-01
117  1.1600000000000E+00  9.4729258387691E-02 -2.8175832176715E-01
118  1.1700000000000E+00  7.8701785188665E-02 -2.3237778921450E-01
119  1.1800000000000E+00  6.3289202095140E-02 -1.8586006643317E-01
120  1.1900000000000E+00  4.8922966874239E-02 -1.4312967207413E-01