Th    ONCVPSP-4.0.1  r_core=   2.51496   2.10180   2.10180   1.80985
90.0000     12.0000      220309    zatom,zion,pspd
8      11   3     4   600     0    pspcod,pspxc,lmax,lloc,mmax,r2well
5.99000000  5.00000000  0.00000000    rchrg fchrg qchrg
3     2     2     2     0    nproj
1     1           extension_switch
0                         8.3269133348736E+00  1.2437039832912E+00  1.8082690615394E-01
1  0.0000000000000E+00  2.2339879945932E-11 -5.0820098129734E-11  7.2925568361804E-11
2  1.0000000000000E-02  2.6437945404766E-02  8.2702975075310E-03 -9.4618346865637E-03
3  2.0000000000000E-02  5.2889957430686E-02  1.6479679138313E-02 -1.8846121410025E-02
4  3.0000000000000E-02  7.9369919136499E-02  2.4567616432146E-02 -2.8075781014120E-02
5  4.0000000000000E-02  1.0589134750884E-01  3.2474353543560E-02 -3.7074669108418E-02
6  5.0000000000000E-02  1.3246721305241E-01  4.0141288016091E-02 -4.5768036350029E-02
7  6.0000000000000E-02  1.5910976251574E-01  4.7511344952844E-02 -5.4082980255668E-02
8  7.0000000000000E-02  1.8583034577171E-01  5.4529342441686E-02 -6.1948885806363E-02
9  8.0000000000000E-02  2.1263924784929E-01  6.1142346144246E-02 -6.9297852180081E-02
10  9.0000000000000E-02  2.3954552708578E-01  6.7300011020662E-02 -7.6065103037537E-02
11  1.0000000000000E-01  2.6655686033560E-01  7.2954908236555E-02 -8.2189377892762E-02
12  1.1000000000000E-01  2.9367939613400E-01  7.8062835384651E-02 -8.7613302222875E-02
13  1.2000000000000E-01  3.2091761667117E-01  8.2583108250251E-02 -9.2283734109136E-02
14  1.3000000000000E-01  3.4827420938507E-01  8.6478832456618E-02 -9.6152085352908E-02
15  1.4000000000000E-01  3.7574994892953E-01  8.9717153442861E-02 -9.9174615174880E-02
16  1.5000000000000E-01  4.0334359021814E-01  9.2269483353028E-02 -1.0131269478415E-01
17  1.6000000000000E-01  4.3105177318539E-01  9.4111703547996E-02 -1.0253304128918E-01
18  1.7000000000000E-01  4.5886893984290E-01  9.5224341593935E-02 -1.0280791962262E-01
19  1.8000000000000E-01  4.8678726414281E-01  9.5592721728231E-02 -1.0211531135491E-01
20  1.9000000000000E-01  5.1479659509099E-01  9.5207087957850E-02 -1.0043904948586E-01
21  2.0000000000000E-01  5.4288441348173E-01  9.4062699103510E-02 -9.7768918520310E-02
22  2.1000000000000E-01  5.7103580255182E-01  9.2159895264819E-02 -9.4100719354171E-02
23  2.2000000000000E-01  5.9923343277669E-01  8.9504135348211E-02 -8.9436298724253E-02
24  2.3000000000000E-01  6.2745756095517E-01  8.6106005465351E-02 -8.3783543196305E-02
25  2.4000000000000E-01  6.5568604365207E-01  8.1981198179001E-02 -7.7156337892028E-02
26  2.5000000000000E-01  6.8389436498982E-01  7.7150462741665E-02 -6.9574490377483E-02
27  2.6000000000000E-01  7.1205567870316E-01  7.1639526639217E-02 -6.1063620352050E-02
28  2.7000000000000E-01  7.4014086429299E-01  6.5478988917846E-02 -5.1655015991820E-02
29  2.8000000000000E-01  7.6811859703957E-01  5.8704185934632E-02 -4.1385458005969E-02
30  2.9000000000000E-01  7.9595543155925E-01  5.1355030330777E-02 -3.0297012663332E-02
31  3.0000000000000E-01  8.2361589851597E-01  4.3475824180529E-02 -1.8436795235709E-02
32  3.1000000000000E-01  8.5106261402630E-01  3.5115047416429E-02 -5.8567054814256E-03
33  3.2000000000000E-01  8.7825640122837E-01  2.6325122772786E-02  7.3868630409654E-03
34  3.3000000000000E-01  9.0515642341766E-01  1.7162158623707E-02  2.1233337884727E-02
35  3.4000000000000E-01  9.3172032809031E-01  7.6856712161146E-03  3.5618304772720E-02
36  3.5000000000000E-01  9.5790440117369E-01 -2.0417120837178E-03  5.0473864592837E-02
37  3.6000000000000E-01  9.8366373066887E-01 -1.1954566806308E-02  6.5729008018401E-02
38  3.7000000000000E-01  1.0089523788774E+00 -2.1985000837814E-02  8.1310005348912E-02
39  3.8000000000000E-01  1.0337235623368E+00 -3.2062997414920E-02  9.7140809088868E-02
40  3.9000000000000E-01  1.0579298385481E+00 -4.2116769678285E-02  1.1314346673235E-01
41  4.0000000000000E-01  1.0815232985386E+00 -5.2073124742514E-02  1.2923854117485E-01
42  4.1000000000000E-01  1.1044557642723E+00 -6.1857835194021E-02  1.4534553616029E-01
43  4.2000000000000E-01  1.1266789898918E+00 -7.1396015889977E-02  1.6138332416441E-01
44  4.3000000000000E-01  1.1481448657554E+00 -8.0612503909204E-02  1.7727057413489E-01
45  4.4000000000000E-01  1.1688056242141E+00 -8.9432239495082E-02  1.9292617654237E-01
46  4.5000000000000E-01  1.1886140460655E+00 -9.7780645833231E-02  2.0826966324737E-01
47  4.6000000000000E-01  1.2075236666161E+00 -1.0558400552370E-01  2.2322161976107E-01
48  4.7000000000000E-01  1.2254889802833E+00 -1.1276983163578E-01  2.3770408756133E-01
49  4.8000000000000E-01  1.2424656426777E+00 -1.1926723127625E-01  2.5164095422952E-01
50  4.9000000000000E-01  1.2584106691175E+00 -1.2500725965726E-01  2.6495832929274E-01
51  5.0000000000000E-01  1.2732826285477E+00 -1.2992326271659E-01  2.7758490378572E-01
52  5.1000000000000E-01  1.2870418318567E+00 -1.3395120642405E-01  2.8945229169600E-01
53  5.2000000000000E-01  1.2996505136200E+00 -1.3702999099747E-01  3.0049535161127E-01
54  5.3000000000000E-01  1.3110730063287E+00 -1.3910174835530E-01  3.1065248705881E-01
55  5.4000000000000E-01  1.3212759062069E+00 -1.4011212124449E-01  3.1986592420342E-01
56  5.5000000000000E-01  1.3302282297656E+00 -1.4001052260620E-01  3.2808196576142E-01
57  5.6000000000000E-01  1.3379015602901E+00 -1.3875037387123E-01  3.3525122017481E-01
58  5.7000000000000E-01  1.3442701835176E+00 -1.3628932102016E-01  3.4132880529879E-01
59  5.8000000000000E-01  1.3493112118156E+00 -1.3258942738673E-01  3.4627452604740E-01
60  5.9000000000000E-01  1.3530046962400E+00 -1.2761734233997E-01  3.5005302565616E-01
61  6.0000000000000E-01  1.3553337259165E+00 -1.2134444513743E-01  3.5263391041943E-01
62  6.1000000000000E-01  1.3562845142601E+00 -1.1374696340700E-01  3.5399184796668E-01
63  6.2000000000000E-01  1.3558464716213E+00 -1.0480606588180E-01  3.5410663934283E-01
64  6.3000000000000E-01  1.3540122640226E+00 -9.4507929181162E-02  3.5296326535053E-01
65  6.4000000000000E-01  1.3507778577281E+00 -8.2843778604164E-02  3.5055190780839E-01
66  6.5000000000000E-01  1.3461425494673E+00 -6.9809903070439E-02  3.4686794655356E-01
67  6.6000000000000E-01  1.3401089822176E+00 -5.5407644515578E-02  3.4191193319526E-01
68  6.7000000000000E-01  1.3326831465281E+00 -3.9643362215370E-02  3.3568954278411E-01
69  6.8000000000000E-01  1.3238743674517E+00 -2.2528372678592E-02  3.2821150471175E-01
70  6.9000000000000E-01  1.3136952772356E+00 -4.0788659085248E-03  3.1949351429049E-01
71  7.0000000000000E-01  1.3021617739967E+00  1.5684201011062E-02  3.0955612658226E-01
72  7.1000000000000E-01  1.2892929666933E+00  3.6735231901501E-02  2.9842463415038E-01
73  7.2000000000000E-01  1.2751111067806E+00  5.9044139802204E-02  2.8612893049007E-01
74  7.3000000000000E-01  1.2596415070133E+00  8.2576514232347E-02  2.7270336096842E-01
75  7.4000000000000E-01  1.2429124479333E+00  1.0729380590323E-01  2.5818656314468E-01
76  7.5000000000000E-01  1.2249550726513E+00  1.3315352726914E-01  2.4262129837570E-01
77  7.6000000000000E-01  1.2058032705957E+00  1.6010946720642E-01  2.2605427661537E-01
78  7.7000000000000E-01  1.1854935509702E+00  1.8811191802095E-01  2.0853597630802E-01
79  7.8000000000000E-01  1.1640649067135E+00  2.1710791291259E-01  1.9012046123527E-01
80  7.9000000000000E-01  1.1415586698145E+00  2.4704147196391E-01  1.7086519612394E-01
81  8.0000000000000E-01  1.1180183588816E+00  2.7785385467516E-01  1.5083086274471E-01
82  8.1000000000000E-01  1.0934895199073E+00  3.0948381703924E-01  1.3008117813043E-01
83  8.2000000000000E-01  1.0680195612088E+00  3.4186787113578E-01  1.0868271642545E-01
84  8.3000000000000E-01  1.0416575835533E+00  3.7494054522683E-01  8.6704735736729E-02
85  8.4000000000000E-01  1.0144542065021E+00  4.0863464235588E-01  6.4219011198683E-02
86  8.5000000000000E-01  9.8646139202373E-01  4.4288149548931E-01  4.1299675285104E-02
87  8.6000000000000E-01  9.5773226643712E-01  4.7761121729278E-01  1.8023066206462E-02
88  8.7000000000000E-01  9.2832094174812E-01  5.1275294270573E-01 -5.5324149795595E-03
89  8.8000000000000E-01  8.9828233743651E-01  5.4823506256666E-01 -2.9286438145586E-02
90  8.9000000000000E-01  8.6767200373959E-01  5.8398544664621E-01 -5.3156868598578E-02
91  9.0000000000000E-01  8.3654594745694E-01  6.1993165456699E-01 -7.7059882400889E-02
92  9.1000000000000E-01  8.0496046127303E-01  6.5600113322742E-01 -1.0091007285791E-01
93  9.2000000000000E-01  7.7297195755828E-01  6.9212139950073E-01 -1.2462054879058E-01
94  9.3000000000000E-01  7.4063680756541E-01  7.2822020714921E-01 -1.4810302548288E-01
95  9.4000000000000E-01  7.0801118688655E-01  7.6422569707600E-01 -1.7126790946677E-01
96  9.5000000000000E-01  6.7515092797780E-01  8.0006653023337E-01 -1.9402437858293E-01
97  9.6000000000000E-01  6.4211138049187E-01  8.3567200271433E-01 -2.1628045902387E-01
98  9.7000000000000E-01  6.0894728008631E-01  8.7097214277338E-01 -2.3794310133195E-01
99  9.8000000000000E-01  5.7571262629553E-01  9.0589778974996E-01 -2.5891825757517E-01
100  9.9000000000000E-01  5.4246056996873E-01  9.4038065510447E-01 -2.7911096216749E-01
101  1.0000000000000E+00  5.0924331068444E-01  9.7435336601894E-01 -2.9842541902307E-01
102  1.0100000000000E+00  4.7611200445588E-01  1.0077494922596E+00 -3.1676509793569E-01
103  1.0200000000000E+00  4.4311668193971E-01  1.0405035572481E+00 -3.3403284325708E-01
104  1.0300000000000E+00  4.1030617725559E-01  1.0725510345360E+00 -3.5013099809711E-01
105  1.0400000000000E+00  3.7772806741608E-01  1.1038283311227E+00 -3.6496154738658E-01
106  1.0500000000000E+00  3.4542862225491E-01  1.1342727592975E+00 -3.7842628322779E-01
107  1.0600000000000E+00  3.1345276462980E-01  1.1638224989238E+00 -3.9042699600234E-01
108  1.0700000000000E+00  2.8184404056354E-01  1.1924165523002E+00 -4.0086569469407E-01
109  1.0800000000000E+00  2.5064459887354E-01  1.2199946939513E+00 -4.0964485984880E-01
110  1.0900000000000E+00  2.1989517973098E-01  1.2464974178897E+00 -4.1666773246942E-01
111  1.1000000000000E+00  1.8963511148045E-01  1.2718658850698E+00 -4.2183864200107E-01
112  1.1100000000000E+00  1.5990231494844E-01  1.2960418739041E+00 -4.2506337632415E-01
113  1.1200000000000E+00  1.3073331436848E-01  1.3189677368430E+00 -4.2624959639188E-01
114  1.1300000000000E+00  1.0216325395818E-01  1.3405863661171E+00 -4.2530729779152E-01
115  1.1400000000000E+00  7.4225919098349E-02  1.3608411718066E+00 -4.2214932107424E-01
116  1.1500000000000E+00  4.6953760987385E-02  1.3796760754363E+00 -4.1669191220245E-01
117  1.1600000000000E+00  2.0377923578985E-02  1.3970355222850E+00 -4.0885533387023E-01
118  1.1700000000000E+00 -5.4717284437999E-03  1.4128645155517E+00 -3.9856452780081E-01
119  1.1800000000000E+00 -3.0566581945580E-02  1.4271086754249E+00 -3.8574982737293E-01
120  1.1900000000000E+00 -5.4879249181075E-02  1.4397143259608E+00 -3.7034771910503E-01
121  1.2000000000000E+00 -7.8383544528088E-02  1.4506286124850E+00 -3.5230165061961E-01
122  1.2100000000000E+00 -1.0105446542947E-01  1.4597996519833E+00 -3.3156288171392E-01
123  1.2200000000000E+00 -1.2286817883839E-01  1.4671767186511E+00 -3.0809137410318E-01
124  1.2300000000000E+00 -1.4380201441632E-01  1.4727104664105E+00 -2.8185671424987E-01
125  1.2400000000000E+00 -1.6383446566906E-01  1.4763531897864E+00 -2.5283906248049E-01
126  1.2500000000000E+00 -1.8294520011977E-01  1.4780591240635E+00 -2.2103012031530E-01
127  1.2600000000000E+00 -2.0111507950927E-01  1.4777847851018E+00 -1.8643410658959E-01
128  1.2700000000000E+00 -2.1832619088324E-01  1.4754893486008E+00 -1.4906873157292E-01
129  1.2800000000000E+00 -2.3456188927136E-01  1.4711350679472E+00 -1.0896615687095E-01
130  1.2900000000000E+00 -2.4980685248606E-01  1.4646877290703E+00 -6.6173927459963E-02
131  1.3000000000000E+00 -2.6404714836718E-01  1.4561171399686E+00 -2.0755860765244E-02
132  1.3100000000000E+00 -2.7727031457681E-01  1.4453976517587E+00  2.7207123717878E-02
133  1.3200000000000E+00 -2.8946545080156E-01  1.4325087072413E+00  7.7616252144544E-02
134  1.3300000000000E+00 -3.0062332295445E-01  1.4174354120834E+00  1.3035424056883E-01
135  1.3400000000000E+00 -3.1073647868368E-01  1.4001691227959E+00  1.8528475610997E-01
136  1.3500000000000E+00 -3.1979937319249E-01  1.3807080447366E+00  2.4225201649901E-01
137  1.3600000000000E+00 -3.2780850405789E-01  1.3590578324162E+00  3.0108055036390E-01
138  1.3700000000000E+00 -3.3476255340762E-01  1.3352321834320E+00  3.6157514128228E-01
139  1.3800000000000E+00 -3.4066253547992E-01  1.3092534164245E+00  4.2352097904123E-01
140  1.3900000000000E+00 -3.4551194724993E-01  1.2811530225488E+00  4.8668404162644E-01
141  1.4000000000000E+00 -3.4931691946990E-01  1.2509721791083E+00  5.5081173116424E-01
142  1.4100000000000E+00 -3.5208636514040E-01  1.2187622132305E+00  6.1563378628606E-01
143  1.4200000000000E+00 -3.5383212211414E-01  1.1845850027927E+00  6.8086349211219E-01
144  1.4300000000000E+00 -3.5456908623914E-01  1.1485133012598E+00  7.4619920718157E-01
145  1.4400000000000E+00 -3.5431533118393E-01  1.1106309727066E+00  8.1132622407090E-01
146  1.4500000000000E+00 -3.5309221086242E-01  1.0710331230968E+00  8.7591897710297E-01
147  1.4600000000000E+00 -3.5092444019967E-01  1.0298261139095E+00  9.3964360629719E-01
148  1.4700000000000E+00 -3.4784014986592E-01  9.8712744449243E-01  1.0021608814572E+00
149  1.4800000000000E+00 -3.4387091056365E-01  9.4306549010514E-01  1.0631294839417E+00
150  1.4900000000000E+00 -3.3905172249792E-01  8.9777908355990E-01  1.1222096360316E+00
151  1.5000000000000E+00 -3.3342096580757E-01  8.5141692970830E-01  1.1790670587864E+00
152  1.5100000000000E+00 -3.2702030799947E-01  8.0413684381922E-01  1.2333772287405E+00
153  1.5200000000000E+00 -3.1989456482830E-01  7.5610480720401E-01  1.2848298915239E+00
154  1.5300000000000E+00 -3.1209151161852E-01  7.0749383633201E-01  1.3331337763609E+00
155  1.5400000000000E+00 -3.0366164275447E-01  6.5848266520990E-01  1.3780214392073E+00
156  1.5500000000000E+00 -2.9465787798812E-01  6.0925424504033E-01  1.4192541438510E+00
157  1.5600000000000E+00 -2.8513521536200E-01  5.5999407022364E-01  1.4566266693584E+00
158  1.5700000000000E+00 -2.7515033192573E-01  5.1088834564595E-01  1.4899719087706E+00
159  1.5800000000000E+00 -2.6476113509330E-01  4.6212201710297E-01  1.5191650973174E+00
160  1.5900000000000E+00 -2.5402626943977E-01  4.1387669460049E-01  1.5441274788699E+00
161  1.6000000000000E+00 -2.4300458602554E-01  3.6632850735037E-01  1.5648291862414E+00
162  1.6100000000000E+00 -2.3175458398345E-01  3.1964593959914E-01  1.5812910741830E+00
163  1.6200000000000E+00 -2.2033383714540E-01  2.7398770810444E-01  1.5935852031784E+00
164  1.6300000000000E+00 -2.0879842195592E-01  2.2950075522913E-01  1.6018336271011E+00
165  1.6400000000000E+00 -1.9720236685744E-01  1.8631844637175E-01  1.6062050881591E+00
166  1.6500000000000E+00 -1.8559714777546E-01  1.4455907692313E-01  1.6069091679619E+00
167  1.6600000000000E+00 -1.7403125932166E-01  1.0432481226581E-01  1.6041873836653E+00
168  1.6700000000000E+00 -1.6254989691434E-01  6.5701204654618E-02  1.5983006525975E+00
169  1.6800000000000E+00 -1.5119479140496E-01  2.8757454001329E-02  1.5895124599259E+00
170  1.6900000000000E+00 -1.4000424499245E-01 -6.4523940505294E-03  1.5780669987170E+00
171  1.7000000000000E+00 -1.2901341189820E-01 -3.9887148980598E-02  1.5641624573051E+00
172  1.7100000000000E+00 -1.1825494621778E-01 -7.1514579061848E-02  1.5479132882572E+00
173  1.7200000000000E+00 -1.0775954257586E-01 -1.0130794476259E-01  1.5293523700996E+00
174  1.7300000000000E+00 -9.7555778121453E-02 -1.2924585649159E-01  1.5084917383873E+00
175  1.7400000000000E+00 -8.7669846772934E-02 -1.5531313131009E-01  1.4853565505811E+00
176  1.7500000000000E+00 -7.8125551205365E-02 -1.7950073099880E-01  1.4599819708882E+00
177  1.7600000000000E+00 -6.8944281633329E-02 -2.0180575082632E-01  1.4324137596564E+00
178  1.7700000000000E+00 -6.0145006790629E-02 -2.2223137564155E-01  1.4027080975003E+00
179  1.7800000000000E+00 -5.1744274586045E-02 -2.4078680856967E-01  1.3709313420858E+00
180  1.7900000000000E+00 -4.3756221867567E-02 -2.5748717517092E-01  1.3371597487999E+00
181  1.8000000000000E+00 -3.6192593380059E-02 -2.7235340283057E-01  1.3014791385456E+00
182  1.8100000000000E+00 -2.9062769822960E-02 -2.8541207577947E-01  1.2639845137315E+00
183  1.8200000000000E+00 -2.2373804874796E-02 -2.9669526625133E-01  1.2247796234863E+00
184  1.8300000000000E+00 -1.6130470993008E-02 -3.0624034247087E-01  1.1839764800044E+00
185  1.8400000000000E+00 -1.0335313759553E-02 -3.1408975426766E-01  1.1416948278651E+00
186  1.8500000000000E+00 -4.9887144954475E-03 -3.2029079725078E-01  1.0980615685948E+00
187  1.8600000000000E+00 -8.8960813694549E-05 -3.2489535665194E-01  1.0532101434142E+00
188  1.8700000000000E+00  4.3676752503856E-03 -3.2795963201483E-01  1.0072798769375E+00
189  1.8800000000000E+00  8.3868519461280E-03 -3.2954384408356E-01  9.6041528533292E-01
190  1.8900000000000E+00  1.1976065796740E-02 -3.2971192531818E-01  9.1276535243822E-01
191  1.9000000000000E+00  1.5144553352053E-02 -3.2853119557015E-01  8.6448277759383E-01
192  1.9100000000000E+00  1.7903187248061E-02 -3.2607202466607E-01  8.1572319995576E-01
193  1.9200000000000E+00  2.0264367088169E-02 -3.2240748348504E-01  7.6664440264951E-01
194  1.9300000000000E+00  2.2241905540797E-02 -3.1761298456989E-01  7.1740549649935E-01
195  1.9400000000000E+00  2.3850911405279E-02 -3.1176591898738E-01  6.6816611794255E-01
196  1.9500000000000E+00  2.5107667469803E-02 -3.0494527959814E-01  6.1908557315215E-01
197  1.9600000000000E+00  2.6029507306718E-02 -2.9723128745182E-01  5.7032202426877E-01
198  1.9700000000000E+00  2.6634689724754E-02 -2.8870501518742E-01  5.2203167259140E-01
199  1.9800000000000E+00  2.6942271020940E-02 -2.7944800728206E-01  4.7436793026968E-01
200  1.9900000000000E+00  2.6971977196211E-02 -2.6954190547308E-01  4.2748062433349E-01
201  2.0000000000000E+00  2.6744075829803E-02 -2.5906807728798E-01  3.8151521281503E-01
202  2.0100000000000E+00  2.6279248547689E-02 -2.4810725082842E-01  3.3661202505143E-01
203  2.0200000000000E+00  2.5598464710286E-02 -2.3673915764429E-01  2.9290553014994E-01
204  2.0300000000000E+00  2.4722856954125E-02 -2.2504218557911E-01  2.5052363811178E-01
205  2.0400000000000E+00  2.3673599195943E-02 -2.1309304336661E-01  2.0958703773713E-01
206  2.0500000000000E+00  2.2471787696661E-02 -2.0096643872263E-01  1.7020857544208E-01
207  2.0600000000000E+00  2.1138325765527E-02 -1.8873477162008E-01  1.3249267904057E-01
208  2.0700000000000E+00  1.9693812640609E-02 -1.7646784426937E-01  9.6534829911397E-02
209  2.0800000000000E+00  1.8158437046221E-02 -1.6423258920604E-01  6.2421086675873E-02
210  2.0900000000000E+00  1.6551875912798E-02 -1.5209281684557E-01  3.0227663540771E-02
211  2.1000000000000E+00  1.4893198691559E-02 -1.4010898367687E-01  2.0565840675442E-05
212  2.1100000000000E+00  1.3200777646548E-02 -1.2833798209529E-01 -2.8144715197609E-02
213  2.1200000000000E+00  1.1492204490142E-02 -1.1683295283503E-01 -5.4223446361268E-02
214  2.1300000000000E+00  9.7842136466671E-03 -1.0564312067122E-01 -7.8181833935447E-02
215  2.1400000000000E+00  8.0926124079537E-03 -9.4813654009257E-02 -9.9997141613292E-02
216  2.1500000000000E+00  6.4322181890922E-03 -8.4385548791563E-02 -1.1965774423194E-01
217  2.1600000000000E+00  4.8168030334525E-03 -7.4395536955017E-02 -1.3716311728831E-01
218  2.1700000000000E+00  3.2590454644962E-03 -6.4876019499130E-02 -1.5252376269031E-01
219  2.1800000000000E+00  1.7704897483025E-03 -5.5855024133964E-02 -1.6576107125013E-01
220  2.1900000000000E+00  3.6151256340479E-04 -4.7356187243659E-02 -1.7690712319262E-01
221  2.2000000000000E+00 -9.5870298026388E-04 -3.9398759725723E-02 -1.8600442839687E-01
222  2.2100000000000E+00 -2.1821860750468E-03 -3.1997636128588E-02 -1.9310560842196E-01
223  2.2200000000000E+00 -3.3021898389268E-03 -2.5163406406824E-02 -1.9827302254476E-01
224  2.2300000000000E+00 -4.3131960420595E-03 -1.8902429352865E-02 -2.0157834086424E-01
225  2.2400000000000E+00 -5.2109131808134E-03 -1.3216926675099E-02 -2.0310206767780E-01
226  2.2500000000000E+00 -5.9922681728337E-03 -8.1050966091295E-03 -2.0293301846966E-01
227  2.2600000000000E+00 -6.6553920224855E-03 -3.5612456881687E-03 -2.0116775470616E-01
228  2.2700000000000E+00 -7.1995998146198E-03  4.2406270506194E-04 -1.9790998045454E-01
229  2.2800000000000E+00 -7.6253654306142E-03  3.8638444970454E-03 -1.9326990516076E-01
230  2.2900000000000E+00 -7.9342915101153E-03  6.7745177445305E-03 -1.8736357850908E-01
231  2.3000000000000E+00 -8.1290746276921E-03  9.1757119994543E-03 -1.8031219553934E-01
232  2.3100000000000E+00 -8.2134674271176E-03  1.1090070637775E-02 -1.7224139419517E-01
233  2.3200000000000E+00 -8.1922384931923E-03  1.2543048995834E-02 -1.6328055422042E-01
234  2.3300000000000E+00 -8.0711215460840E-03  1.3562677150421E-02 -1.5356198098810E-01
235  2.3400000000000E+00 -7.8567739862184E-03  1.4179361314231E-02 -1.4322024502726E-01
236  2.3500000000000E+00 -7.5567244604338E-03  1.4425655426035E-02 -1.3239146275455E-01
237  2.3600000000000E+00 -7.1793795847616E-03  1.4336191893892E-02 -1.2121280900410E-01
238  2.3700000000000E+00 -6.7337683825487E-03  1.3946880428651E-02 -1.0982068573008E-01
239  2.3800000000000E+00 -6.2297833141296E-03  1.3295524205918E-02 -9.8351693938633E-02
240  2.3900000000000E+00 -5.6784695309256E-03  1.2422575819334E-02 -8.6943886209384E-02
241  2.4000000000000E+00 -5.0957894115203E-03  1.1381741821486E-02 -7.5756981460256E-02
242  2.4100000000000E+00 -4.4968919491050E-03  1.0223617618857E-02 -6.4940049122843E-02
243  2.4200000000000E+00 -3.8902753806569E-03  8.9790470050919E-03 -5.4598871602722E-02
244  2.4300000000000E+00 -3.2857799764806E-03  7.6818558949657E-03 -4.4840728964063E-02
245  2.4400000000000E+00 -2.6945192093188E-03  6.3686100040513E-03 -3.5773734263911E-02
246  2.4500000000000E+00 -2.1283464509179E-03  5.0770498896767E-03 -2.7503536989560E-02
247  2.4600000000000E+00 -1.5999324038197E-03  3.8462769287780E-03 -2.0133554560830E-02
248  2.4700000000000E+00 -1.1226874545359E-03  2.7165008635081E-03 -1.3764341032443E-02
249  2.4800000000000E+00 -7.1103854163020E-04  1.7296720317851E-03 -8.4966861117525E-03
250  2.4900000000000E+00 -3.7694768108329E-04  9.2085636528564E-04 -4.3944907777069E-03
251  2.5000000000000E+00 -1.4182766591624E-04  3.4755869452521E-04 -1.6135019518664E-03
252  2.5100000000000E+00 -2.3103720623780E-05  5.6562268655546E-05 -2.5738706213458E-04
253  2.5200000000000E+00  7.7435079620860E-06 -1.9259859373242E-05  8.3570617711514E-05
254  2.5300000000000E+00  5.5131899327883E-08 -1.3675542358268E-07  5.9117407732837E-07
255  2.54 -0.  0. -0.
256  2.55  0. -0.  0.
257  2.56  0. -0.  0.
258  2.57 -0.  0. -0.
259  2.58  0.  0.  0.
260  2.59  0.  0.  0.
261  2.60  0.  0.  0.
262  2.61  0.  0.  0.
263  2.62  0.  0.  0.
264  2.63  0.  0.  0.
265  2.64  0.  0.  0.
266  2.65  0.  0.  0.
267  2.66  0.  0.  0.
268  2.67  0.  0.  0.
269  2.68  0.  0.  0.
270  2.69  0.  0.  0.
271  2.70  0.  0.  0.
272  2.71  0.  0.  0.
273  2.72  0.  0.  0.
274  2.73  0.  0.  0.
275  2.74  0.  0.  0.
276  2.75  0.  0.  0.
277  2.76  0.  0.  0.
278  2.77  0.  0.  0.
279  2.78  0.  0.  0.
280  2.79  0.  0.  0.
281  2.80  0.  0.  0.
282  2.81  0.  0.  0.
283  2.82  0.  0.  0.
284  2.83  0.  0.  0.
285  2.84  0.  0.  0.
286  2.85  0.  0.  0.
287  2.86  0.  0.  0.
288  2.87  0.  0.  0.
289  2.88  0.  0.  0.
290  2.89  0.  0.  0.
291  2.90  0.  0.  0.
292  2.91  0.  0.  0.
293  2.92  0.  0.  0.
294  2.93  0.  0.  0.
295  2.94  0.  0.  0.
296  2.95  0.  0.  0.
297  2.96  0.  0.  0.
298  2.97  0.  0.  0.
299  2.98  0.  0.  0.
300  2.99  0.  0.  0.
301  3.00  0.  0.  0.
302  3.01  0.  0.  0.
303  3.02  0.  0.  0.
304  3.03  0.  0.  0.
305  3.04  0.  0.  0.
306  3.05  0.  0.  0.
307  3.06  0.  0.  0.
308  3.07  0.  0.  0.
309  3.08  0.  0.  0.
310  3.09  0.  0.  0.
311  3.10  0.  0.  0.
312  3.11  0.  0.  0.
313  3.12  0.  0.  0.
314  3.13  0.  0.  0.
315  3.14  0.  0.  0.
316  3.15  0.  0.  0.
317  3.16  0.  0.  0.
318  3.17  0.  0.  0.
319  3.18  0.  0.  0.
320  3.19  0.  0.  0.
321  3.20  0.  0.  0.
322  3.21  0.  0.  0.
323  3.22  0.  0.  0.
324  3.23  0.  0.  0.
325  3.24  0.  0.  0.
326  3.25  0.  0.  0.
327  3.26  0.  0.  0.
328  3.27  0.  0.  0.
329  3.28  0.  0.  0.
330  3.29  0.  0.  0.
331  3.30  0.  0.  0.
332  3.31  0.  0.  0.
333  3.32  0.  0.  0.
334  3.33  0.  0.  0.
335  3.34  0.  0.  0.
336  3.35  0.  0.  0.
337  3.36  0.  0.  0.
338  3.37  0.  0.  0.
339  3.38  0.  0.  0.
340  3.39  0.  0.  0.
341  3.40  0.  0.  0.
342  3.41  0.  0.  0.
343  3.42  0.  0.  0.
344  3.43  0.  0.  0.
345  3.44  0.  0.  0.
346  3.45  0.  0.  0.
347  3.46  0.  0.  0.
348  3.47  0.  0.  0.
349  3.48  0.  0.  0.
350  3.49  0.  0.  0.
351  3.50  0.  0.  0.
352  3.51  0.  0.  0.
353  3.52  0.  0.  0.
354  3.53  0.  0.  0.
355  3.54  0.  0.  0.
356  3.55  0.  0.  0.
357  3.56  0.  0.  0.
358  3.57  0.  0.  0.
359  3.58  0.  0.  0.
360  3.59  0.  0.  0.
361  3.60  0.  0.  0.
362  3.61  0.  0.  0.
363  3.62  0.  0.  0.
364  3.63  0.  0.  0.
365  3.64  0.  0.  0.
366  3.65  0.  0.  0.
367  3.66  0.  0.  0.
368  3.67  0.  0.  0.
369  3.68  0.  0.  0.
370  3.69  0.  0.  0.
371  3.70  0.  0.  0.
372  3.71  0.  0.  0.
373  3.72  0.  0.  0.
374  3.73  0.  0.  0.
375  3.74  0.  0.  0.
376  3.75  0.  0.  0.
377  3.76  0.  0.  0.
378  3.77  0.  0.  0.
379  3.78  0.  0.  0.
380  3.79  0.  0.  0.
381  3.80  0.  0.  0.
382  3.81  0.  0.  0.
383  3.82  0.  0.  0.
384  3.83  0.  0.  0.
385  3.84  0.  0.  0.
386  3.85  0.  0.  0.
387  3.86  0.  0.  0.
388  3.87  0.  0.  0.
389  3.88  0.  0.  0.
390  3.89  0.  0.  0.
391  3.90  0.  0.  0.
392  3.91  0.  0.  0.
393  3.92  0.  0.  0.
394  3.93  0.  0.  0.
395  3.94  0.  0.  0.
396  3.95  0.  0.  0.
397  3.96  0.  0.  0.
398  3.97  0.  0.  0.
399  3.98  0.  0.  0.
400  3.99  0.  0.  0.
401  4.00  0.  0.  0.
402  4.01  0.  0.  0.
403  4.02  0.  0.  0.
404  4.03  0.  0.  0.
405  4.04  0.  0.  0.
406  4.05  0.  0.  0.
407  4.06  0.  0.  0.
408  4.07  0.  0.  0.
409  4.08  0.  0.  0.
410  4.09  0.  0.  0.
411  4.10  0.  0.  0.
412  4.11  0.  0.  0.
413  4.12  0.  0.  0.
414  4.13  0.  0.  0.
415  4.14  0.  0.  0.
416  4.15  0.  0.  0.
417  4.16  0.  0.  0.
418  4.17  0.  0.  0.
419  4.18  0.  0.  0.
420  4.19  0.  0.  0.
421  4.20  0.  0.  0.
422  4.21  0.  0.  0.
423  4.22  0.  0.  0.
424  4.23  0.  0.  0.
425  4.24  0.  0.  0.
426  4.25  0.  0.  0.
427  4.26  0.  0.  0.
428  4.27  0.  0.  0.
429  4.28  0.  0.  0.
430  4.29  0.  0.  0.
431  4.30  0.  0.  0.
432  4.31  0.  0.  0.
433  4.32  0.  0.  0.
434  4.33  0.  0.  0.
435  4.34  0.  0.  0.
436  4.35  0.  0.  0.
437  4.36  0.  0.  0.
438  4.37  0.  0.  0.
439  4.38  0.  0.  0.
440  4.39  0.  0.  0.
441  4.40  0.  0.  0.
442  4.41  0.  0.  0.
443  4.42  0.  0.  0.
444  4.43  0.  0.  0.
445  4.44  0.  0.  0.
446  4.45  0.  0.  0.
447  4.46  0.  0.  0.
448  4.47  0.  0.  0.
449  4.48  0.  0.  0.
450  4.49  0.  0.  0.
451  4.50  0.  0.  0.
452  4.51  0.  0.  0.
453  4.52  0.  0.  0.
454  4.53  0.  0.  0.
455  4.54  0.  0.  0.
456  4.55  0.  0.  0.
457  4.56  0.  0.  0.
458  4.57  0.  0.  0.
459  4.58  0.  0.  0.
460  4.59  0.  0.  0.
461  4.60  0.  0.  0.
462  4.61  0.  0.  0.
463  4.62  0.  0.  0.
464  4.63  0.  0.  0.
465  4.64  0.  0.  0.
466  4.65  0.  0.  0.
467  4.66  0.  0.  0.
468  4.67  0.  0.  0.
469  4.68  0.  0.  0.
470  4.69  0.  0.  0.
471  4.70  0.  0.  0.
472  4.71  0.  0.  0.
473  4.72  0.  0.  0.
474  4.73  0.  0.  0.
475  4.74  0.  0.  0.
476  4.75  0.  0.  0.
477  4.76  0.  0.  0.
478  4.77  0.  0.  0.
479  4.78  0.  0.  0.
480  4.79  0.  0.  0.
481  4.80  0.  0.  0.
482  4.81  0.  0.  0.
483  4.82  0.  0.  0.
484  4.83  0.  0.  0.
485  4.84  0.  0.  0.
486  4.85  0.  0.  0.
487  4.86  0.  0.  0.
488  4.87  0.  0.  0.
489  4.88  0.  0.  0.
490  4.89  0.  0.  0.
491  4.90  0.  0.  0.
492  4.91  0.  0.  0.
493  4.92  0.  0.  0.
494  4.93  0.  0.  0.
495  4.94  0.  0.  0.
496  4.95  0.  0.  0.
497  4.96  0.  0.  0.
498  4.97  0.  0.  0.
499  4.98  0.  0.  0.
500  4.99  0.  0.  0.
501  5.00  0.  0.  0.
502  5.01  0.  0.  0.
503  5.02  0.  0.  0.
504  5.03  0.  0.  0.
505  5.04  0.  0.  0.
506  5.05  0.  0.  0.
507  5.06  0.  0.  0.
508  5.07  0.  0.  0.
509  5.08  0.  0.  0.
510  5.09  0.  0.  0.
511  5.10  0.  0.  0.
512  5.11  0.  0.  0.
513  5.12  0.  0.  0.
514  5.13  0.  0.  0.
515  5.14  0.  0.  0.
516  5.15  0.  0.  0.
517  5.16  0.  0.  0.
518  5.17  0.  0.  0.
519  5.18  0.  0.  0.
520  5.19  0.  0.  0.
521  5.20  0.  0.  0.
522  5.21  0.  0.  0.
523  5.22  0.  0.  0.
524  5.23  0.  0.  0.
525  5.24  0.  0.  0.
526  5.25  0.  0.  0.
527  5.26  0.  0.  0.
528  5.27  0.  0.  0.
529  5.28  0.  0.  0.
530  5.29  0.  0.  0.
531  5.30  0.  0.  0.
532  5.31  0.  0.  0.
533  5.32  0.  0.  0.
534  5.33  0.  0.  0.
535  5.34  0.  0.  0.
536  5.35  0.  0.  0.
537  5.36  0.  0.  0.
538  5.37  0.  0.  0.
539  5.38  0.  0.  0.
540  5.39  0.  0.  0.
541  5.40  0.  0.  0.
542  5.41  0.  0.  0.
543  5.42  0.  0.  0.
544  5.43  0.  0.  0.
545  5.44  0.  0.  0.
546  5.45  0.  0.  0.
547  5.46  0.  0.  0.
548  5.47  0.  0.  0.
549  5.48  0.  0.  0.
550  5.49  0.  0.  0.
551  5.50  0.  0.  0.
552  5.51  0.  0.  0.
553  5.52  0.  0.  0.
554  5.53  0.  0.  0.
555  5.54  0.  0.  0.
556  5.55  0.  0.  0.
557  5.56  0.  0.  0.
558  5.57  0.  0.  0.
559  5.58  0.  0.  0.
560  5.59  0.  0.  0.
561  5.60  0.  0.  0.
562  5.61  0.  0.  0.
563  5.62  0.  0.  0.
564  5.63  0.  0.  0.
565  5.64  0.  0.  0.
566  5.65  0.  0.  0.
567  5.66  0.  0.  0.
568  5.67  0.  0.  0.
569  5.68  0.  0.  0.
570  5.69  0.  0.  0.
571  5.70  0.  0.  0.
572  5.71  0.  0.  0.
573  5.72  0.  0.  0.
574  5.73  0.  0.  0.
575  5.74  0.  0.  0.
576  5.75  0.  0.  0.
577  5.76  0.  0.  0.
578  5.77  0.  0.  0.
579  5.78  0.  0.  0.
580  5.79  0.  0.  0.
581  5.80  0.  0.  0.
582  5.81  0.  0.  0.
583  5.82  0.  0.  0.
584  5.83  0.  0.  0.
585  5.84  0.  0.  0.
586  5.85  0.  0.  0.
587  5.86  0.  0.  0.
588  5.87  0.  0.  0.