At    ONCVPSP-4.0.1  r_core=   1.40401   1.45532   1.40401   1.50851
85.0000     25.0000      231012    zatom,zion,pspd
8 -116133   3     4   600     0    pspcod,pspxc,lmax,lloc,mmax,r2well
5.99000000  5.00000000  0.00000000    rchrg fchrg qchrg
2     2     2     1     0    nproj
1     1           extension_switch
0                         1.0095621576899E+01 -3.5022256954333E-01
1  0.0000000000000E+00  7.2346240109766E-10  7.5504691665618E-09
2  1.0000000000000E-02  8.7764597824147E-02  2.3753035326173E-02
3  2.0000000000000E-02  1.7530056432209E-01  4.7535919396406E-02
4  3.0000000000000E-02  2.6237967321980E-01  7.1375288206829E-02
5  4.0000000000000E-02  3.4877451473312E-01  9.5291439096036E-02
6  5.0000000000000E-02  4.3425891958504E-01  1.1929537651665E-01
7  6.0000000000000E-02  5.1860840141801E-01  1.4338611038358E-01
8  7.0000000000000E-02  6.0160062285968E-01  1.6754828208195E-01
9  8.0000000000000E-02  6.8301588977679E-01  1.9175018566732E-01
10  9.0000000000000E-02  7.6263767737849E-01  2.1594224266830E-01
11  1.0000000000000E-01  8.4025319082674E-01  2.4005597840706E-01
12  1.1000000000000E-01  9.1565396189954E-01  2.6400353611823E-01
13  1.2000000000000E-01  9.8863648205846E-01  2.8767775262581E-01
14  1.3000000000000E-01  1.0590028710220E+00  3.1095280620909E-01
15  1.4000000000000E-01  1.1265615786687E+00  3.3368543384032E-01
16  1.5000000000000E-01  1.1911281168192E+00  3.5571670150907E-01
17  1.6000000000000E-01  1.2525258162018E+00  3.7687429815801E-01
18  1.7000000000000E-01  1.3105866027218E+00  3.9697531113830E-01
19  1.8000000000000E-01  1.3651517860617E+00  4.1582942933134E-01
20  1.9000000000000E-01  1.4160728526523E+00  4.3324250944304E-01
21  2.0000000000000E-01  1.4632122542172E+00  4.4902043169838E-01
22  2.1000000000000E-01  1.5064441824007E+00  4.6297316346079E-01
23  2.2000000000000E-01  1.5456553194866E+00  4.7491894335207E-01
24  2.3000000000000E-01  1.5807455548932E+00  4.8468849439643E-01
25  2.4000000000000E-01  1.6116286570120E+00  4.9212917265739E-01
26  2.5000000000000E-01  1.6382328900495E+00  4.9710895783732E-01
27  2.6000000000000E-01  1.6605015658250E+00  4.9952019437945E-01
28  2.7000000000000E-01  1.6783935209808E+00  4.9928299571988E-01
29  2.8000000000000E-01  1.6918835107626E+00  4.9634823040573E-01
30  2.9000000000000E-01  1.7009625114118E+00  4.9070001670667E-01
31  3.0000000000000E-01  1.7056379242708E+00  4.8235766193888E-01
32  3.1000000000000E-01  1.7059336759113E+00  4.7137699379633E-01
33  3.2000000000000E-01  1.7018902099344E+00  4.5785104331169E-01
34  3.3000000000000E-01  1.6935643675323E+00  4.4191005238819E-01
35  3.4000000000000E-01  1.6810291554226E+00  4.2372079287133E-01
36  3.5000000000000E-01  1.6643734013278E+00  4.0348519856273E-01
37  3.6000000000000E-01  1.6437012987582E+00  3.8143832610867E-01
38  3.7000000000000E-01  1.6191318444178E+00  3.5784567500431E-01
39  3.8000000000000E-01  1.5907981730777E+00  3.3299991072922E-01
40  3.9000000000000E-01  1.5588467962025E+00  3.0721704796751E-01
41  4.0000000000000E-01  1.5234367519562E+00  2.8083216267646E-01
42  4.1000000000000E-01  1.4847386754223E+00  2.5419471218892E-01
43  4.2000000000000E-01  1.4429337989262E+00  2.2766355132730E-01
44  4.3000000000000E-01  1.3982128932256E+00  2.0160173946993E-01
45  4.4000000000000E-01  1.3507751610205E+00  1.7637123847733E-01
46  4.5000000000000E-01  1.3008270947115E+00  1.5232760423660E-01
47  4.6000000000000E-01  1.2485813106033E+00  1.2981477523794E-01
48  4.7000000000000E-01  1.1942553717940E+00  1.0916006002909E-01
49  4.8000000000000E-01  1.1380706118201E+00  9.0669421622050E-02
50  4.9000000000000E-01  1.0802509707435E+00  7.4623151016137E-02
51  5.0000000000000E-01  1.0210218547777E+00  6.1272014068967E-02
52  5.1000000000000E-01  9.6060902977228E-01  5.0833946152413E-02
53  5.2000000000000E-01  8.9923755792988E-01  4.3491357573848E-02
54  5.3000000000000E-01  8.3713078602640E-01  3.9389099866371E-02
55  5.4000000000000E-01  7.7450939218716E-01  3.8633129027427E-02
56  5.5000000000000E-01  7.1159049694832E-01  4.1289886913284E-02
57  5.6000000000000E-01  6.4858684294696E-01  4.7386406600249E-02
58  5.7000000000000E-01  5.8570604615855E-01  5.6911131937249E-02
59  5.8000000000000E-01  5.2314992017202E-01  6.9815426082380E-02
60  5.9000000000000E-01  4.6111387359100E-01  8.6015728878833E-02
61  6.0000000000000E-01  3.9978637930676E-01  1.0539630882177E-01
62  6.1000000000000E-01  3.3934851313290E-01  1.2781254241023E-01
63  6.2000000000000E-01  2.7997355815263E-01  1.5309464217117E-01
64  6.3000000000000E-01  2.2182667013068E-01  1.8105174484544E-01
65  6.4000000000000E-01  1.6506459850545E-01  2.1147626337679E-01
66  6.5000000000000E-01  1.0983545682140E-01  2.4414840062973E-01
67  6.6000000000000E-01  5.6278535999410E-02  2.7884071933011E-01
68  6.7000000000000E-01  4.5241535843392E-03  3.1532266166454E-01
69  6.8000000000000E-01 -4.5306467942286E-02  3.5336491334039E-01
70  6.9000000000000E-01 -9.3101300540941E-02  3.9274351068261E-01
71  7.0000000000000E-01 -1.3875759408368E-01  4.3324359546687E-01
72  7.1000000000000E-01 -1.8218194976647E-01  4.7466273054211E-01
73  7.2000000000000E-01 -2.2329038859279E-01  5.1681369971439E-01
74  7.3000000000000E-01 -2.6200841917730E-01  5.5952672762872E-01
75  7.4000000000000E-01 -2.9827110810649E-01  6.0265106924231E-01
76  7.5000000000000E-01 -3.3202315497482E-01  6.4605593362952E-01
77  7.6000000000000E-01 -3.6321897302132E-01  6.8963072296899E-01
78  7.7000000000000E-01 -3.9182277505356E-01  7.3328458428040E-01
79  7.8000000000000E-01 -4.1780866309766E-01  7.7694528842920E-01
80  7.9000000000000E-01 -4.4116071898845E-01  8.2055746772158E-01
81  8.0000000000000E-01 -4.6187309194734E-01  8.6408025968144E-01
82  8.1000000000000E-01 -4.7995007811986E-01  9.0748441996279E-01
83  8.2000000000000E-01 -4.9540618609249E-01  9.5074898144087E-01
84  8.3000000000000E-01 -5.0826618160748E-01  9.9385754900653E-01
85  8.4000000000000E-01 -5.1856510407193E-01  1.0367943301546E+00
86  8.5000000000000E-01 -5.2634824703532E-01  1.0795400098400E+00
87  8.6000000000000E-01 -5.3167109460512E-01  1.1220675840533E+00
88  8.7000000000000E-01 -5.3459920579777E-01  1.1643382699665E+00
89  8.8000000000000E-01 -5.3520803908748E-01  1.2062976112064E+00
90  8.9000000000000E-01 -5.3358270992292E-01  1.2478718947618E+00
91  9.0000000000000E-01 -5.2981767472552E-01  1.2889649912335E+00
92  9.1000000000000E-01 -5.2401633585599E-01  1.3294557226414E+00
93  9.2000000000000E-01 -5.1629056322116E-01  1.3691958519516E+00
94  9.3000000000000E-01 -5.0676012957184E-01  1.4080087760398E+00
95  9.4000000000000E-01 -4.9555205808841E-01  1.4456889892245E+00
96  9.5000000000000E-01 -4.8279988253440E-01  1.4820023680532E+00
97  9.6000000000000E-01 -4.6864282204540E-01  1.5166873100525E+00
98  9.7000000000000E-01 -4.5322487447332E-01  1.5494567400311E+00
99  9.8000000000000E-01 -4.3669383408611E-01  1.5800009776458E+00
100  9.9000000000000E-01 -4.1920024128666E-01  1.6079914397412E+00
101  1.0000000000000E+00 -4.0089627382088E-01  1.6330851308910E+00
102  1.0100000000000E+00 -3.8193459065098E-01  1.6549298560458E+00
103  1.0200000000000E+00 -3.6246714123500E-01  1.6731700706566E+00
104  1.0300000000000E+00 -3.4264395433710E-01  1.6874532665386E+00
105  1.0400000000000E+00 -3.2261192165915E-01  1.6974367764543E+00
106  1.0500000000000E+00 -3.0251359250153E-01  1.7027948672786E+00
107  1.0600000000000E+00 -2.8248599629761E-01  1.7032259810214E+00
108  1.0700000000000E+00 -2.6265951020387E-01  1.6984599751610E+00
109  1.0800000000000E+00 -2.4315678894425E-01  1.6882652089317E+00
110  1.0900000000000E+00 -2.2409177379655E-01  1.6724553205492E+00
111  1.1000000000000E+00 -2.0556879696096E-01  1.6508955419616E+00
112  1.1100000000000E+00 -1.8768179657566E-01  1.6235084025740E+00
113  1.1200000000000E+00 -1.7051365634298E-01  1.5902786815082E+00
114  1.1300000000000E+00 -1.5413568212732E-01  1.5512574791666E+00
115  1.1400000000000E+00 -1.3860722599749E-01  1.5065652930306E+00
116  1.1500000000000E+00 -1.2397546604855E-01  1.4563939994485E+00
117  1.1600000000000E+00 -1.1027534797875E-01  1.4010076624092E+00
118  1.1700000000000E+00 -9.7529691866886E-02  1.3407421115013E+00
119  1.1800000000000E+00 -8.5749464922479E-02  1.2760032541660E+00
120  1.1900000000000E+00 -7.4934218239981E-02  1.2072641112840E+00
121  1.2000000000000E+00 -6.5072682791771E-02  1.1350605899590E+00
122  1.2100000000000E+00 -5.6143517144669E-02  1.0599860321302E+00
123  1.2200000000000E+00 -4.8116196679852E-02  9.8268460235352E-01
124  1.2300000000000E+00 -4.0952031536885E-02  9.0384360179119E-01
125  1.2400000000000E+00 -3.4605298111060E-02  8.2418481791556E-01
126  1.2500000000000E+00 -2.9024466760675E-02  7.4445504016401E-01
127  1.2600000000000E+00 -2.4153506490512E-02  6.6541589016538E-01
128  1.2700000000000E+00 -1.9933245781944E-02  5.8783313105398E-01
129  1.2800000000000E+00 -1.6302767494932E-02  5.1246563324498E-01
130  1.2900000000000E+00 -1.3200814892562E-02  4.4005418364458E-01
131  1.3000000000000E+00 -1.0567185351963E-02  3.7131033143437E-01
132  1.3100000000000E+00 -8.3440857246468E-03  3.0690549370815E-01
133  1.3200000000000E+00 -6.4774531042465E-03  2.4746022561060E-01
134  1.3300000000000E+00 -4.9180952545917E-03  1.9353515079641E-01
135  1.3400000000000E+00 -3.6249861393581E-03  1.4559790610725E-01
136  1.3500000000000E+00 -2.5673917637127E-03  1.0399755895418E-01
137  1.3600000000000E+00 -1.7126738131281E-03  6.9104808491233E-02
138  1.3700000000000E+00 -1.0376593993088E-03  4.1196676779870E-02
139  1.3800000000000E+00 -5.2963998412207E-04  2.0447046496440E-02
140  1.3900000000000E+00 -1.8546875775178E-04  6.8885974317357E-03
141  1.4000000000000E+00 -1.9147979335722E-05  6.7587383508079E-04
142  1.4100000000000E+00  2.1455141149962E-06 -7.3531402744150E-05
143  1.4200000000000E+00 -2.9898616761567E-07  1.0496926334273E-05
144  1.43 -0. -0.
145  1.44  0.  0.
146  1.45  0.  0.
147  1.46  0.  0.
148  1.47  0.  0.
149  1.48  0.  0.
150  1.49  0.  0.
151  1.50  0.  0.
152  1.51  0.  0.
153  1.52  0.  0.
154  1.53  0.  0.
155  1.54  0.  0.
156  1.55  0.  0.
157  1.56  0.  0.
158  1.57  0.  0.
159  1.58  0.  0.
160  1.59  0.  0.
161  1.60  0.  0.
162  1.61  0.  0.
163  1.62  0.  0.
164  1.63  0.  0.
165  1.64  0.  0.
166  1.65  0.  0.
167  1.66  0.  0.
168  1.67  0.  0.
169  1.68  0.  0.
170  1.69  0.  0.
171  1.70  0.  0.
172  1.71  0.  0.
173  1.72  0.  0.
174  1.73  0.  0.
175  1.74  0.  0.
176  1.75  0.  0.
177  1.76  0.  0.
178  1.77  0.  0.
179  1.78  0.  0.
180  1.79  0.  0.
181  1.80  0.  0.
182  1.81  0.  0.
183  1.82  0.  0.
184  1.83  0.  0.
185  1.84  0.  0.
186  1.85  0.  0.
187  1.86  0.  0.
188  1.87  0.  0.
189  1.88  0.  0.
190  1.89  0.  0.
191  1.90  0.  0.
192  1.91  0.  0.
193  1.92  0.  0.
194  1.93  0.  0.
195  1.94  0.  0.
196  1.95  0.  0.
197  1.96  0.  0.
198  1.97  0.  0.
199  1.98  0.  0.
200  1.99  0.  0.
201  2.00  0.  0.
202  2.01  0.  0.
203  2.02  0.  0.
204  2.03  0.  0.
205  2.04  0.  0.
206  2.05  0.  0.
207  2.06  0.  0.
208  2.07  0.  0.
209  2.08  0.  0.
210  2.09  0.  0.
211  2.10  0.  0.
212  2.11  0.  0.
213  2.12  0.  0.
214  2.13  0.  0.
215  2.14  0.  0.
216  2.15  0.  0.
217  2.16  0.  0.
218  2.17  0.  0.
219  2.18  0.  0.
220  2.19  0.  0.
221  2.20  0.  0.
222  2.21  0.  0.
223  2.22  0.  0.
224  2.23  0.  0.
225  2.24  0.  0.
226  2.25  0.  0.
227  2.26  0.  0.
228  2.27  0.  0.
229  2.28  0.  0.
230  2.29  0.  0.
231  2.30  0.  0.
232  2.31  0.  0.
233  2.32  0.  0.
234  2.33  0.  0.
235  2.34  0.  0.
236  2.35  0.  0.
237  2.36  0.  0.
238  2.37  0.  0.
239  2.38  0.  0.
240  2.39  0.  0.
241  2.40  0.  0.
242  2.41  0.  0.
243  2.42  0.  0.
244  2.43  0.  0.
245  2.44  0.  0.
246  2.45  0.  0.
247  2.46  0.  0.
248  2.47  0.  0.
249  2.48  0.  0.
250  2.49  0.  0.
251  2.50  0.  0.
252  2.51  0.  0.
253  2.52  0.  0.
254  2.53  0.  0.
255  2.54  0.  0.
256  2.55  0.  0.
257  2.56  0.  0.
258  2.57  0.  0.
259  2.58  0.  0.
260  2.59  0.  0.
261  2.60  0.  0.
262  2.61  0.  0.
263  2.62  0.  0.
264  2.63  0.  0.
265  2.64  0.  0.
266  2.65  0.  0.
267  2.66  0.  0.
268  2.67  0.  0.
269  2.68  0.  0.
270  2.69  0.  0.
271  2.70  0.  0.
272  2.71  0.  0.
273  2.72  0.  0.
274  2.73  0.  0.
275  2.74  0.  0.
276  2.75  0.  0.
277  2.76  0.  0.
278  2.77  0.  0.
279  2.78  0.  0.
280  2.79  0.  0.
281  2.80  0.  0.
282  2.81  0.  0.
283  2.82  0.  0.
284  2.83  0.  0.
285  2.84  0.  0.
286  2.85  0.  0.
287  2.86  0.  0.
288  2.87  0.  0.
289  2.88  0.  0.
290  2.89  0.  0.
291  2.90  0.  0.
292  2.91  0.  0.
293  2.92  0.  0.
294  2.93  0.  0.
295  2.94  0.  0.
296  2.95  0.  0.
297  2.96  0.  0.
298  2.97  0.  0.
299  2.98  0.  0.
300  2.99  0.  0.
301  3.00  0.  0.
302  3.01  0.  0.
303  3.02  0.  0.
304  3.03  0.  0.
305  3.04  0.  0.
306  3.05  0.  0.
307  3.06  0.  0.
308  3.07  0.  0.
309  3.08  0.  0.
310  3.09  0.  0.
311  3.10  0.  0.
312  3.11  0.  0.
313  3.12  0.  0.
314  3.13  0.  0.
315  3.14  0.  0.
316  3.15  0.  0.
317  3.16  0.  0.
318  3.17  0.  0.
319  3.18  0.  0.
320  3.19  0.  0.
321  3.20  0.  0.
322  3.21  0.  0.
323  3.22  0.  0.
324  3.23  0.  0.
325  3.24  0.  0.
326  3.25  0.  0.
327  3.26  0.  0.
328  3.27  0.  0.
329  3.28  0.  0.
330  3.29  0.  0.
331  3.30  0.  0.
332  3.31  0.  0.
333  3.32  0.  0.
334  3.33  0.  0.
335  3.34  0.  0.
336  3.35  0.  0.
337  3.36  0.  0.
338  3.37  0.  0.
339  3.38  0.  0.
340  3.39  0.  0.
341  3.40  0.  0.
342  3.41  0.  0.
343  3.42  0.  0.
344  3.43  0.  0.
345  3.44  0.  0.
346  3.45  0.  0.
347  3.46  0.  0.
348  3.47  0.  0.
349  3.48  0.  0.
350  3.49  0.  0.
351  3.50  0.  0.
352  3.51  0.  0.
353  3.52  0.  0.
354  3.53  0.  0.
355  3.54  0.  0.
356  3.55  0.  0.
357  3.56  0.  0.
358  3.57  0.  0.
359  3.58  0.  0.
360  3.59  0.  0.
361  3.60  0.  0.
362  3.61  0.  0.
363  3.62  0.  0.
364  3.63  0.  0.
365  3.64  0.  0.
366  3.65  0.  0.
367  3.66  0.  0.
368  3.67  0.  0.
369  3.68  0.  0.
370  3.69  0.  0.
371  3.70  0.  0.
372  3.71  0.  0.
373  3.72  0.  0.
374  3.73  0.  0.
375  3.74  0.  0.
376  3.75  0.  0.
377  3.76  0.  0.
378  3.77  0.  0.
379  3.78  0.  0.
380  3.79  0.  0.
381  3.80  0.  0.
382  3.81  0.  0.
383  3.82  0.  0.
384  3.83  0.  0.
385  3.84  0.  0.
386  3.85  0.  0.
387  3.86  0.  0.
388  3.87  0.  0.
389  3.88  0.  0.
390  3.89  0.  0.
391  3.90  0.  0.
392  3.91  0.  0.
393  3.92  0.  0.
394  3.93  0.  0.
395  3.94  0.  0.
396  3.95  0.  0.
397  3.96  0.  0.
398  3.97  0.  0.
399  3.98  0.  0.
400  3.99  0.  0.
401  4.00  0.  0.
402  4.01  0.  0.
403  4.02  0.  0.
404  4.03  0.  0.
405  4.04  0.  0.
406  4.05  0.  0.
407  4.06  0.  0.
408  4.07  0.  0.
409  4.08  0.  0.
410  4.09  0.  0.
411  4.10  0.  0.
412  4.11  0.  0.
413  4.12  0.  0.
414  4.13  0.  0.
415  4.14  0.  0.
416  4.15  0.  0.
417  4.16  0.  0.
418  4.17  0.  0.
419  4.18  0.  0.
420  4.19  0.  0.
421  4.20  0.  0.
422  4.21  0.  0.
423  4.22  0.  0.
424  4.23  0.  0.
425  4.24  0.  0.
426  4.25  0.  0.
427  4.26  0.  0.
428  4.27  0.  0.
429  4.28  0.  0.
430  4.29  0.  0.
431  4.30  0.  0.
432  4.31  0.  0.
433  4.32  0.  0.
434  4.33  0.  0.
435  4.34  0.  0.
436  4.35  0.  0.
437  4.36  0.  0.
438  4.37  0.  0.
439  4.38  0.  0.
440  4.39  0.  0.
441  4.40  0.  0.
442  4.41  0.  0.
443  4.42  0.  0.
444  4.43  0.  0.
445  4.44  0.  0.
446  4.45  0.  0.
447  4.46  0.  0.
448  4.47  0.  0.
449  4.48  0.  0.
450  4.49  0.  0.
451  4.50  0.  0.
452  4.51  0.  0.
453  4.52  0.  0.
454  4.53  0.  0.
455  4.54  0.  0.
456  4.55  0.  0.
457  4.56  0.  0.
458  4.57  0.  0.
459  4.58  0.  0.
460  4.59  0.  0.
461  4.60  0.  0.
462  4.61  0.  0.
463  4.62  0.  0.
464  4.63  0.  0.
465  4.64  0.  0.
466  4.65  0.  0.
467  4.66  0.  0.
468  4.67  0.  0.
469  4.68  0.  0.
470  4.69  0.  0.
471  4.70  0.  0.
472  4.71  0.  0.
473  4.72  0.  0.
474  4.73  0.  0.
475  4.74  0.  0.
476  4.75  0.  0.
477  4.76  0.  0.
478  4.77  0.  0.
479  4.78  0.  0.
480  4.79  0.  0.
481  4.80  0.  0.
482  4.81  0.  0.
483  4.82  0.  0.
484  4.83  0.  0.
485  4.84  0.  0.
486  4.85  0.  0.
487  4.86  0.  0.
488  4.87  0.  0.
489  4.88  0.  0.
490  4.89  0.  0.
491  4.90  0.  0.
492  4.91  0.  0.
493  4.92  0.  0.
494  4.93  0.  0.
495  4.94  0.  0.
496  4.95  0.  0.
497  4.96  0.  0.
498  4.97  0.  0.
499  4.98  0.  0.
500  4.99  0.  0.
501  5.00  0.  0.
502  5.01  0.  0.
503  5.02  0.  0.
504  5.03  0.  0.
505  5.04  0.  0.
506  5.05  0.  0.
507  5.06  0.  0.
508  5.07  0.  0.
509  5.08  0.  0.
510  5.09  0.  0.
511  5.10  0.  0.
512  5.11  0.  0.
513  5.12  0.  0.
514  5.13  0.  0.
515  5.14  0.  0.
516  5.15  0.  0.
517  5.16  0.  0.
518  5.17  0.  0.
519  5.18  0.  0.
520  5.19  0.  0.
521  5.20  0.  0.
522  5.21  0.  0.
523  5.22  0.  0.
524  5.23  0.  0.
525  5.24  0.  0.
526  5.25  0.  0.
527  5.26  0.  0.
528  5.27  0.  0.
529  5.28  0.  0.
530  5.29  0.  0.
531  5.30  0.  0.
532  5.31  0.  0.
533  5.32  0.  0.
534  5.33  0.  0.
535  5.34  0.  0.
536  5.35  0.  0.
537  5.36  0.  0.
538  5.37  0.  0.
539  5.38  0.  0.
540  5.39  0.  0.
541  5.40  0.  0.
542  5.41  0.  0.
543  5.42  0.  0.
544  5.43  0.  0.
545  5.44  0.  0.
546  5.45  0.  0.
547  5.46  0.  0.
548  5.47  0.  0.
549  5.48  0.  0.
550  5.49  0.  0.
551  5.50  0.  0.
552  5.51  0.  0.
553  5.52  0.  0.
554  5.53  0.  0.
555  5.54  0.  0.
556  5.55  0.  0.
557  5.56  0.  0.
558  5.57  0.  0.
559  5.58  0.  0.
560  5.59  0.  0.
561  5.60  0.  0.
562  5.61  0.  0.
563  5.62  0.  0.
564  5.63  0.  0.
565  5.64  0.  0.
566  5.65  0.  0.
567  5.66  0.  0.
568  5.67  0.  0.
569  5.68  0.  0.
570  5.69  0.  0.
571  5.70  0.  0.
572  5.71  0.  0.
573  5.72  0.  0.
574  5.73  0.  0.
575  5.74  0.  0.
576  5.75  0.  0.
577  5.76  0.  0.
578  5.77  0.  0.
579  5.78  0.  0.
580  5.79  0.  0.
581  5.80  0.  0.
582  5.81  0.  0.
583  5.82  0.  0.
584  5.83  0.  0.
585  5.84  0.  0.
586  5.85  0.  0.
587  5.86  0.  0.
588  5.87  0.  0.
589  5.88  0.  0.
590  5.89  0.  0.
591  5.90  0.  0.
592  5.91  0.  0.
593  5.92  0.  0.
594  5.93  0.  0.
595  5.94  0.  0.
596  5.95  0.  0.
597  5.96  0.  0.
598  5.97  0.  0.
599  5.98  0.  0.
600  5.99  0.  0.
1                         4.7992397719106E+00 -2.2747139620800E-01
1  0.0000000000000E+00 -2.2030484381208E-09 -1.3539736529872E-08
2  1.0000000000000E-02  2.1246156631837E-03  1.8075478891469E-04
3  2.0000000000000E-02  8.4895287351969E-03  7.3220527086465E-04
4  3.0000000000000E-02  1.9067928067279E-02  1.6815957812583E-03
5  4.0000000000000E-02  3.3815098504627E-02  3.0732952213831E-03
6  5.0000000000000E-02  5.2668380933673E-02  4.9672686824803E-03
7  6.0000000000000E-02  7.5547126019521E-02  7.4369952008114E-03
8  7.0000000000000E-02  1.0235265097282E-01  1.0566887416193E-02
9  8.0000000000000E-02  1.3296821088834E-01  1.4449282446213E-02
10  9.0000000000000E-02  1.6725899806746E-01  1.9181085109909E-02
11  1.0000000000000E-01  2.0507218421629E-01  2.4860154442553E-02
12  1.1000000000000E-01  2.4623702145314E-01  3.1581531987717E-02
13  1.2000000000000E-01  2.9056501862624E-01  3.9433615441125E-02
14  1.3000000000000E-01  3.3785020951093E-01  4.8494383715649E-02
15  1.4000000000000E-01  3.8786952901137E-01  5.8827779327262E-02
16  1.5000000000000E-01  4.4038331253612E-01  7.0480351155302E-02
17  1.6000000000000E-01  4.9513593226245E-01  8.3478255166444E-02
18  1.7000000000000E-01  5.5185658207661E-01  9.7824702725281E-02
19  1.8000000000000E-01  6.1026022061394E-01  1.1349793582813E-01
20  1.9000000000000E-01  6.7004867907357E-01  1.3044979622563E-01
21  2.0000000000000E-01  7.3091193740543E-01  1.4860494123308E-01
22  2.1000000000000E-01  7.9252956913168E-01  1.6786074339721E-01
23  2.2000000000000E-01  8.5457235154486E-01  1.8808789446715E-01
24  2.3000000000000E-01  9.1670403440294E-01  2.0913171670124E-01
25  2.4000000000000E-01  9.7858325660066E-01  2.3081416685261E-01
26  2.5000000000000E-01  1.0398655967247E+00  2.5293650063964E-01
27  2.6000000000000E-01  1.1002057399821E+00  2.7528254855237E-01
28  2.7000000000000E-01  1.1592597408128E+00  2.9762253788863E-01
29  2.8000000000000E-01  1.2166873576339E+00  3.1971738134998E-01
30  2.9000000000000E-01  1.2721544336947E+00  3.4132333972384E-01
31  3.0000000000000E-01  1.3253352960049E+00  3.6219695546139E-01
32  3.1000000000000E-01  1.3759151427975E+00  3.8210014561025E-01
33  3.2000000000000E-01  1.4235923890401E+00  4.0080533680235E-01
34  3.3000000000000E-01  1.4680809391531E+00  4.1810052199658E-01
35  3.4000000000000E-01  1.5091123563388E+00  4.3379411853368E-01
36  3.5000000000000E-01  1.5464378987966E+00  4.4771950981194E-01
37  3.6000000000000E-01  1.5798303945612E+00  4.5973915850176E-01
38  3.7000000000000E-01  1.6090859287588E+00  4.6974818758144E-01
39  3.8000000000000E-01  1.6340253196733E+00  4.7767733642720E-01
40  3.9000000000000E-01  1.6544953631140E+00  4.8349521249329E-01
41  4.0000000000000E-01  1.6703698281137E+00  4.8720977448220E-01
42  4.1000000000000E-01  1.6815501908910E+00  4.8886899998817E-01
43  4.2000000000000E-01  1.6879660982039E+00  4.8856070901001E-01
44  4.3000000000000E-01  1.6895755556149E+00  4.8641153405029E-01
45  4.4000000000000E-01  1.6863648406900E+00  4.8258504729673E-01
46  4.5000000000000E-01  1.6783481456679E+00  4.7727907515365E-01
47  4.6000000000000E-01  1.6655669585665E+00  4.7072224968716E-01
48  4.7000000000000E-01  1.6480891959435E+00  4.6316986490299E-01
49  4.8000000000000E-01  1.6260081045055E+00  4.5489912274471E-01
50  4.9000000000000E-01  1.5994409523829E+00  4.4620386886470E-01
51  5.0000000000000E-01  1.5685275340647E+00  4.3738893119816E-01
52  5.1000000000000E-01  1.5334285156675E+00  4.2876418483178E-01
53  5.2000000000000E-01  1.4943236493183E+00  4.2063847432403E-01
54  5.3000000000000E-01  1.4514098869297E+00  4.1331352929054E-01
55  5.4000000000000E-01  1.4048994244999E+00  4.0707801057106E-01
56  5.5000000000000E-01  1.3550177082641E+00  4.0220182256999E-01
57  5.6000000000000E-01  1.3020014335524E+00  3.9893082241742E-01
58  5.7000000000000E-01  1.2460965660891E+00  3.9748204850671E-01
59  5.8000000000000E-01  1.1875564137289E+00  3.9803957988906E-01
60  5.9000000000000E-01  1.1266397743002E+00  4.0075112416707E-01
61  6.0000000000000E-01  1.0636091823841E+00  4.0572541522882E-01
62  6.1000000000000E-01  9.9872927455898E-01  4.1303048375512E-01
63  6.2000000000000E-01  9.3226528896767E-01  4.2269284333101E-01
64  6.3000000000000E-01  8.6448171110577E-01  4.3469761365096E-01
65  6.4000000000000E-01  7.9564107358447E-01  4.4898958022394E-01
66  6.5000000000000E-01  7.2600291338365E-01  4.6547516766698E-01
67  6.6000000000000E-01  6.5582288589155E-01  4.8402528166100E-01
68  6.7000000000000E-01  5.8535203092458E-01  5.0447895344964E-01
69  6.8000000000000E-01  5.1483618203809E-01  5.2664770091132E-01
70  6.9000000000000E-01  4.4451550687187E-01  5.5032050221193E-01
71  7.0000000000000E-01  3.7462416311141E-01  5.7526926230527E-01
72  7.1000000000000E-01  3.0539005196793E-01  6.0125463949322E-01
73  7.2000000000000E-01  2.3703464895455E-01  6.2803208923597E-01
74  7.3000000000000E-01  1.6977289021788E-01  6.5535797568875E-01
75  7.4000000000000E-01  1.0381309181464E-01  6.8299559824623E-01
76  7.5000000000000E-01  3.9356879125733E-02  7.1072098081495E-01
77  7.6000000000000E-01 -2.3400895915532E-02  7.3832827565482E-01
78  7.7000000000000E-01 -8.4272270948080E-02  7.6563464137888E-01
79  7.8000000000000E-01 -1.4307634202409E-01  7.9248446594863E-01
80  7.9000000000000E-01 -1.9963950212188E-01  8.1875282002670E-01
81  8.0000000000000E-01 -2.5379576333073E-01  8.4434804355517E-01
82  8.1000000000000E-01 -3.0538717327746E-01  8.6921338854074E-01
83  8.2000000000000E-01 -3.5426433254389E-01  8.9332766330764E-01
84  8.3000000000000E-01 -4.0028701570993E-01  9.1670484742873E-01
85  8.4000000000000E-01 -4.4332489435266E-01  9.3939267162059E-01
86  8.5000000000000E-01 -4.8325835594985E-01  9.6147018251077E-01
87  8.6000000000000E-01 -5.1997940829022E-01  9.8304433775563E-01
88  8.7000000000000E-01 -5.5339265479993E-01  1.0042457018979E+00
89  8.8000000000000E-01 -5.8341632226828E-01  1.0252233370055E+00
90  8.9000000000000E-01 -6.0998331890544E-01  1.0461390039427E+00
91  9.0000000000000E-01 -6.3304229759385E-01  1.0671608095545E+00
92  9.1000000000000E-01 -6.5255869669479E-01  1.0884564515887E+00
93  9.2000000000000E-01 -6.6851572892257E-01  1.1101862264057E+00
94  9.3000000000000E-01 -6.8091528766752E-01  1.1324959740701E+00
95  9.4000000000000E-01 -6.8977873978401E-01  1.1555101409846E+00
96  9.5000000000000E-01 -6.9514757429330E-01  1.1793251416327E+00
97  9.6000000000000E-01 -6.9708387769676E-01  1.2040031981267E+00
98  9.7000000000000E-01 -6.9567060864534E-01  1.2295668291155E+00
99  9.8000000000000E-01 -6.9101164754131E-01  1.2559941482822E+00
100  9.9000000000000E-01 -6.8323160021283E-01  1.2832151173470E+00
101  1.0000000000000E+00 -6.7247533903557E-01  1.3111088794777E+00
102  1.0100000000000E+00 -6.5890726969764E-01  1.3395022766807E+00
103  1.0200000000000E+00 -6.4271031711995E-01  1.3681696295379E+00
104  1.0300000000000E+00 -6.2408462973810E-01  1.3968338301319E+00
105  1.0400000000000E+00 -6.0324600730096E-01  1.4251687697575E+00
106  1.0500000000000E+00 -5.8042406342537E-01  1.4528030926382E+00
107  1.0600000000000E+00 -5.5586014020829E-01  1.4793252361287E+00
108  1.0700000000000E+00 -5.2980499811503E-01  1.5042896874036E+00
109  1.0800000000000E+00 -5.0251630999165E-01  1.5272243571092E+00
110  1.0900000000000E+00 -4.7425599323778E-01  1.5476389426883E+00
111  1.1000000000000E+00 -4.4528741882885E-01  1.5650341285328E+00
112  1.1100000000000E+00 -4.1587253983096E-01  1.5789114476341E+00
113  1.1200000000000E+00 -3.8626898524178E-01  1.5887836103179E+00
114  1.1300000000000E+00 -3.5672716729360E-01  1.5941850906297E+00
115  1.1400000000000E+00 -3.2748745171937E-01  1.5946827502559E+00
116  1.1500000000000E+00 -2.9877744084041E-01  1.5898862739129E+00
117  1.1600000000000E+00 -2.7080941866190E-01  1.5794581890712E+00
118  1.1700000000000E+00 -2.4377800544880E-01  1.5631232468074E+00
119  1.1800000000000E+00 -2.1785806650166E-01  1.5406769495287E+00
120  1.1900000000000E+00 -1.9320291612649E-01  1.5119930250356E+00
121  1.2000000000000E+00 -1.6994285309517E-01  1.4770296648834E+00
122  1.2100000000000E+00 -1.4818405839211E-01  1.4358343675665E+00
123  1.2200000000000E+00 -1.2800787972975E-01  1.3885472536872E+00
124  1.2300000000000E+00 -1.0947052041095E-01  1.3354027500273E+00
125  1.2400000000000E+00 -9.2603142696749E-02  1.2767295719400E+00
126  1.2500000000000E+00 -7.7412388034623E-02  1.2129489681248E+00
127  1.2600000000000E+00 -6.3881308558222E-02  1.1445712275162E+00
128  1.2700000000000E+00 -5.1970696234001E-02  1.0721904844647E+00
129  1.2800000000000E+00 -4.1620788147601E-02  9.9647789446802E-01
130  1.2900000000000E+00 -3.2753318861465E-02  9.1817328763352E-01
131  1.3000000000000E+00 -2.5273883624991E-02  8.3807544037116E-01
132  1.3100000000000E+00 -1.9074569712567E-02  7.5703113643332E-01
133  1.3200000000000E+00 -1.4036807412679E-02  6.7592321579237E-01
134  1.3300000000000E+00 -1.0034387306785E-02  5.9565783342958E-01
135  1.3400000000000E+00 -6.9365865882923E-03  5.1715116927197E-01
136  1.3500000000000E+00 -4.6113443766178E-03  4.4131584478087E-01
137  1.3600000000000E+00 -2.9284165983337E-03  3.6904733358805E-01
138  1.3700000000000E+00 -1.7625148944565E-03  3.0121043963665E-01
139  1.3800000000000E+00 -9.9608743523457E-04  2.3862694272305E-01
140  1.3900000000000E+00 -5.3102058307772E-04  1.8203683413745E-01
141  1.4000000000000E+00 -2.8795572022295E-04  1.3209344798613E-01
142  1.4100000000000E+00 -1.7565353342953E-04  8.9453912303555E-02
143  1.4200000000000E+00 -1.2388147435164E-04  5.4678168264193E-02
144  1.4300000000000E+00 -8.6978971216010E-05  2.8205730154405E-02
145  1.4400000000000E+00 -4.5462115460613E-05  1.0310205973816E-02
146  1.4500000000000E+00 -8.6703595064180E-06  1.3724459916067E-03
147  1.4600000000000E+00  1.1210319464797E-06 -1.4754092599589E-04
148  1.4700000000000E+00 -2.5968343873309E-07  3.8669136516933E-05
149  1.48  0. -0.
150  1.49 -0.  0.
151  1.50  0.  0.
152  1.51  0.  0.
153  1.52  0.  0.
154  1.53  0.  0.
155  1.54  0.  0.
156  1.55  0.  0.
157  1.56  0.  0.
158  1.57  0.  0.
159  1.58  0.  0.
160  1.59  0.  0.
161  1.60  0.  0.
162  1.61  0.  0.
163  1.62  0.  0.
164  1.63  0.  0.
165  1.64  0.  0.
166  1.65  0.  0.
167  1.66  0.  0.
168  1.67  0.  0.
169  1.68  0.  0.
170  1.69  0.  0.
171  1.70  0.  0.
172  1.71  0.  0.
173  1.72  0.  0.
174  1.73  0.  0.
175  1.74  0.  0.
176  1.75  0.  0.
177  1.76  0.  0.
178  1.77  0.  0.
179  1.78  0.  0.
180  1.79  0.  0.
181  1.80  0.  0.
182  1.81  0.  0.
183  1.82  0.  0.
184  1.83  0.  0.
185  1.84  0.  0.
186  1.85  0.  0.
187  1.86  0.  0.
188  1.87  0.  0.
189  1.88  0.  0.
190  1.89  0.  0.
191  1.90  0.  0.
192  1.91  0.  0.
193  1.92  0.  0.
194  1.93  0.  0.
195  1.94  0.  0.
196  1.95  0.  0.
197  1.96  0.  0.
198  1.97  0.  0.
199  1.98  0.  0.
200  1.99  0.  0.
201  2.00  0.  0.
202  2.01  0.  0.
203  2.02  0.  0.
204  2.03  0.  0.
205  2.04  0.  0.
206  2.05  0.  0.
207  2.06  0.  0.
208  2.07  0.  0.
209  2.08  0.  0.
210  2.09  0.  0.
211  2.10  0.  0.
212  2.11  0.  0.
213  2.12  0.  0.
214  2.13  0.  0.
215  2.14  0.  0.
216  2.15  0.  0.
217  2.16  0.  0.
218  2.17  0.  0.
219  2.18  0.  0.
220  2.19  0.  0.
221  2.20  0.  0.
222  2.21  0.  0.
223  2.22  0.  0.
224  2.23  0.  0.
225  2.24  0.  0.
226  2.25  0.  0.
227  2.26  0.  0.
228  2.27  0.  0.
229  2.28  0.  0.
230  2.29  0.  0.
231  2.30  0.  0.
232  2.31  0.  0.
233  2.32  0.  0.
234  2.33  0.  0.
235  2.34  0.  0.
236  2.35  0.  0.
237  2.36  0.  0.
238  2.37  0.  0.
239  2.38  0.  0.
240  2.39  0.  0.
241  2.40  0.  0.
242  2.41  0.  0.
243  2.42  0.  0.
244  2.43  0.  0.
245  2.44  0.  0.
246  2.45  0.  0.
247  2.46  0.  0.
248  2.47  0.  0.
249  2.48  0.  0.
250  2.49  0.  0.
251  2.50  0.  0.
252  2.51  0.  0.
253  2.52  0.  0.
254  2.53  0.  0.
255  2.54  0.  0.
256  2.55  0.  0.
257  2.56  0.  0.
258  2.57  0.  0.
259  2.58  0.  0.
260  2.59  0.  0.
261  2.60  0.  0.