At    ONCVPSP-4.0.1  r_core=   1.40401   1.45532   1.40401   1.50851
85.0000     25.0000      231012    zatom,zion,pspd
8 -116133   3     4   600     0    pspcod,pspxc,lmax,lloc,mmax,r2well
5.99000000  5.00000000  0.00000000    rchrg fchrg qchrg
2     3     3     1    nproj
3     1           extension_switch
4     4     2    nprojso
0                         1.0134733833326E+01 -3.4605855856798E-01
1  0.0000000000000E+00  7.1467798345992E-10  7.6676792415409E-09
2  1.0000000000000E-02  8.7614744161943E-02  2.4075173144763E-02
3  2.0000000000000E-02  1.7500184436208E-01  4.8179666270438E-02
4  3.0000000000000E-02  2.6193406016632E-01  7.2339537603003E-02
5  4.0000000000000E-02  3.4818496450377E-01  9.6574410063930E-02
6  5.0000000000000E-02  4.3352936592854E-01  1.2089447210489E-01
7  6.0000000000000E-02  5.1774374905266E-01  1.4529773509709E-01
8  7.0000000000000E-02  6.0060673834428E-01  1.6976762354275E-01
9  8.0000000000000E-02  6.8189958977058E-01  1.9427096670874E-01
10  9.0000000000000E-02  7.6140671390224E-01  2.1875645101791E-01
11  1.0000000000000E-01  8.3891623310418E-01  2.4315358187638E-01
12  1.1000000000000E-01  9.1422057433952E-01  2.6737219179831E-01
13  1.2000000000000E-01  9.8711709793323E-01  2.9130251897474E-01
14  1.3000000000000E-01  1.0574087614072E+00  3.1481586709892E-01
15  1.4000000000000E-01  1.1249048162365E+00  3.3776584360344E-01
16  1.5000000000000E-01  1.1894215341156E+00  3.5999015978500E-01
17  1.6000000000000E-01  1.2507829580952E+00  3.8131296289703E-01
18  1.7000000000000E-01  1.3088216727789E+00  4.0154765747493E-01
19  1.8000000000000E-01  1.3633795866875E+00  4.2050016121260E-01
20  1.9000000000000E-01  1.4143087189249E+00  4.3797252989969E-01
21  2.0000000000000E-01  1.4614719814483E+00  4.5376687650365E-01
22  2.1000000000000E-01  1.5047439475649E+00  4.6768950165330E-01
23  2.2000000000000E-01  1.5440115967735E+00  4.7955514673579E-01
24  2.3000000000000E-01  1.5791750257557E+00  4.8919127669883E-01
25  2.4000000000000E-01  1.6101481152004E+00  4.9644229755847E-01
26  2.5000000000000E-01  1.6368591422350E+00  5.0117361360870E-01
27  2.6000000000000E-01  1.6592513285263E+00  5.0327543142579E-01
28  2.7000000000000E-01  1.6772833146087E+00  5.0266622192647E-01
29  2.8000000000000E-01  1.6909295516900E+00  4.9929575789670E-01
30  2.9000000000000E-01  1.7001806030544E+00  4.9314765243609E-01
31  3.0000000000000E-01  1.7050433482318E+00  4.8424133349874E-01
32  3.1000000000000E-01  1.7055410842893E+00  4.7263340095477E-01
33  3.2000000000000E-01  1.7017135199276E+00  4.5841832511084E-01
34  3.3000000000000E-01  1.6936166594853E+00  4.4172845915063E-01
35  3.4000000000000E-01  1.6813225754540E+00  4.2273335219807E-01
36  3.5000000000000E-01  1.6649190696536E+00  4.0163836436192E-01
37  3.6000000000000E-01  1.6445092247783E+00  3.7868259987436E-01
38  3.7000000000000E-01  1.6202108495703E+00  3.5413618896661E-01
39  3.8000000000000E-01  1.5921558223819E+00  3.2829696311383E-01
40  3.9000000000000E-01  1.5604893393119E+00  3.0148658142139E-01
41  4.0000000000000E-01  1.5253690744285E+00  2.7404617792167E-01
42  4.1000000000000E-01  1.4869642607844E+00  2.4633161013705E-01
43  4.2000000000000E-01  1.4454547019729E+00  2.1870839819935E-01
44  4.3000000000000E-01  1.4010297248424E+00  1.9154645089209E-01
45  4.4000000000000E-01  1.3538870846674E+00  1.6521468003368E-01
46  4.5000000000000E-01  1.3042318345470E+00  1.4007560752159E-01
47  4.6000000000000E-01  1.2522751710708E+00  1.1648007003214E-01
48  4.7000000000000E-01  1.1982332683382E+00  9.4762124788297E-02
49  4.8000000000000E-01  1.1423261122535E+00  7.5234255986284E-02
50  4.9000000000000E-01  1.0847763466414E+00  5.8182975480876E-02
51  5.0000000000000E-01  1.0258081421517E+00  4.3864903284514E-02
52  5.1000000000000E-01  9.6564609815944E-01  3.2503403498105E-02
53  5.2000000000000E-01  9.0451418693149E-01  2.4285839668802E-02
54  5.3000000000000E-01  8.4263474825314E-01  1.9361500502848E-02
55  5.4000000000000E-01  7.8022754150207E-01  1.7840232629783E-02
56  5.5000000000000E-01  7.1750886085891E-01  1.9791802020818E-02
57  5.6000000000000E-01  6.5469071797638E-01  2.5245990037156E-02
58  5.7000000000000E-01  5.9198009502635E-01  3.4193414263186E-02
59  5.8000000000000E-01  5.2957826963664E-01  4.6587048614814E-02
60  5.9000000000000E-01  4.6768021184824E-01  6.2344402049807E-02
61  6.0000000000000E-01  4.0647405189965E-01  8.1350300887608E-02
62  6.1000000000000E-01  3.4614061640792E-01  1.0346020659172E-01
63  6.2000000000000E-01  2.8685302939247E-01  1.2850398918244E-01
64  6.3000000000000E-01  2.2877637360280E-01  1.5629006649967E-01
65  6.4000000000000E-01  1.7206740678638E-01  1.8660981156288E-01
66  6.5000000000000E-01  1.1687432688553E-01  2.1924212446975E-01
67  6.6000000000000E-01  6.3336579695932E-02  2.5395806178477E-01
68  6.7000000000000E-01  1.1584702263284E-02  2.9052541529160E-01
69  6.8000000000000E-01 -3.8259804757102E-02  3.2871313336153E-01
70  6.9000000000000E-01 -8.6084582400917E-02  3.6829548201851E-01
71  7.0000000000000E-01 -1.3178650262848E-01  4.0905584898945E-01
72  7.1000000000000E-01 -1.7527174722584E-01  4.5079010250487E-01
73  7.2000000000000E-01 -2.1645588139655E-01  4.9330942718441E-01
74  7.3000000000000E-01 -2.5526392620194E-01  5.3644257178879E-01
75  7.4000000000000E-01 -2.9163043301223E-01  5.8003745768034E-01
76  7.5000000000000E-01 -3.2549956203051E-01  6.2396211220708E-01
77  7.6000000000000E-01 -3.5682516577743E-01  6.6810490757577E-01
78  7.7000000000000E-01 -3.8557087720622E-01  7.1237410274509E-01
79  7.8000000000000E-01 -4.1171020088998E-01  7.5669670307690E-01
80  7.9000000000000E-01 -4.3522660451895E-01  8.0101666953788E-01
81  8.0000000000000E-01 -4.5611360679803E-01  8.4529252575930E-01
82  8.1000000000000E-01 -4.7437485677826E-01  8.8949442685537E-01
83  8.2000000000000E-01 -4.9002419871994E-01  9.3360076820304E-01
84  8.3000000000000E-01 -5.0308571579941E-01  9.7759442505615E-01
85  8.4000000000000E-01 -5.1359374536166E-01  1.0214587245929E+00
86  8.5000000000000E-01 -5.2159285800804E-01  1.0651732605054E+00
87  8.6000000000000E-01 -5.2713779261185E-01  1.1087096663097E+00
88  8.7000000000000E-01 -5.3029333938462E-01  1.1520274670040E+00
89  8.8000000000000E-01 -5.3113416338270E-01  1.1950701294211E+00
90  8.9000000000000E-01 -5.2974456134759E-01  1.2377614295402E+00
91  9.0000000000000E-01 -5.2621814551135E-01  1.2800022501488E+00
92  9.1000000000000E-01 -5.2065744896176E-01  1.3216679146426E+00
93  9.2000000000000E-01 -5.1317344833449E-01  1.3626061525410E+00
94  9.3000000000000E-01 -5.0388500096327E-01  1.4026357796628E+00
95  9.4000000000000E-01 -4.9291819514682E-01  1.4415461611000E+00
96  9.5000000000000E-01 -4.8040561385468E-01  1.4790975084236E+00
97  9.6000000000000E-01 -4.6648551395977E-01  1.5150220443115E+00
98  9.7000000000000E-01 -4.5130092491478E-01  1.5490260483706E+00
99  9.8000000000000E-01 -4.3499867264602E-01  1.5807927777392E+00
100  9.9000000000000E-01 -4.1772833627786E-01  1.6099862355518E+00
101  1.0000000000000E+00 -3.9964114708362E-01  1.6362557399493E+00
102  1.0100000000000E+00 -3.8088884074209E-01  1.6592412264986E+00
103  1.0200000000000E+00 -3.6162247552235E-01  1.6785791980594E+00
104  1.0300000000000E+00 -3.4199123038399E-01  1.6939092187701E+00
105  1.0400000000000E+00 -3.2214119812873E-01  1.7048808333002E+00
106  1.0500000000000E+00 -3.0221418964268E-01  1.7111607791936E+00
107  1.0600000000000E+00 -2.8234656589468E-01  1.7124403493799E+00
108  1.0700000000000E+00 -2.6266811468587E-01  1.7084427539794E+00
109  1.0800000000000E+00 -2.4330098915937E-01  1.6989303256450E+00
110  1.0900000000000E+00 -2.2435872476853E-01  1.6837114109926E+00
111  1.1000000000000E+00 -2.0594535075933E-01  1.6626467923005E+00
112  1.1100000000000E+00 -1.8815461125582E-01  1.6356554885872E+00
113  1.1200000000000E+00 -1.7106930974937E-01  1.6027197934183E+00
114  1.1300000000000E+00 -1.5476078920607E-01  1.5638894181657E+00
115  1.1400000000000E+00 -1.3928855813865E-01  1.5192846238236E+00
116  1.1500000000000E+00 -1.2470007087492E-01  1.4690982415710E+00
117  1.1600000000000E+00 -1.1103066792115E-01  1.4135965018039E+00
118  1.1700000000000E+00 -9.8303679817101E-02  1.3531186128941E+00
119  1.1800000000000E+00 -8.6530695236592E-02  1.2880750541973E+00
120  1.1900000000000E+00 -7.5711991377500E-02  1.2189445721317E+00
121  1.2000000000000E+00 -6.5837121920800E-02  1.1462698933642E+00
122  1.2100000000000E+00 -5.6885655119726E-02  1.0706521942908E+00
123  1.2200000000000E+00 -4.8828051906616E-02  9.9274439109975E-01
124  1.2300000000000E+00 -4.1626671375471E-02  9.1324333877297E-01
125  1.2400000000000E+00 -3.5236888634434E-02  8.3288105020379E-01
126  1.2500000000000E+00 -2.9608307875199E-02  7.5241506767074E-01
127  1.2600000000000E+00 -2.4686051637851E-02  6.7261813758122E-01
128  1.2700000000000E+00 -2.0412105672405E-02  5.9426735555179E-01
129  1.2800000000000E+00 -1.6726697567586E-02  5.1813296195887E-01
130  1.2900000000000E+00 -1.3569686452831E-02  4.4496697785126E-01
131  1.3000000000000E+00 -1.0881940598253E-02  3.7549187739018E-01
132  1.3100000000000E+00 -8.6066771431798E-03  3.1038952365852E-01
133  1.3200000000000E+00 -6.6907679018151E-03  2.5029027044320E-01
134  1.3300000000000E+00 -5.0858660627730E-03  1.9576375181332E-01
135  1.3400000000000E+00 -3.7516838240343E-03  1.4728525934101E-01
136  1.3500000000000E+00 -2.6581065295060E-03  1.0520970964251E-01
137  1.3600000000000E+00 -1.7730158968570E-03  6.9914347943283E-02
138  1.3700000000000E+00 -1.0736230272319E-03  4.1681427384980E-02
139  1.3800000000000E+00 -5.4746309002231E-04  2.0688570666580E-02
140  1.3900000000000E+00 -1.9145958807943E-04  6.9702369912479E-03
141  1.4000000000000E+00 -1.9739902285354E-05  6.8391427176917E-04
142  1.4100000000000E+00  2.2070649105456E-06 -7.4404979849701E-05
143  1.4200000000000E+00 -3.0787248976821E-07  1.0621574128929E-05
144  1.43  0.  0.
145  1.44  0.  0.
146  1.45  0.  0.
147  1.46  0.  0.
148  1.47  0.  0.
149  1.48  0.  0.
150  1.49  0.  0.
151  1.50  0.  0.
152  1.51  0.  0.
153  1.52  0.  0.
154  1.53  0.  0.
155  1.54  0.  0.
156  1.55  0.  0.
157  1.56  0.  0.
158  1.57  0.  0.
159  1.58  0.  0.
160  1.59  0.  0.
161  1.60  0.  0.
162  1.61  0.  0.
163  1.62  0.  0.
164  1.63  0.  0.
165  1.64  0.  0.
166  1.65  0.  0.
167  1.66  0.  0.
168  1.67  0.  0.
169  1.68  0.  0.
170  1.69  0.  0.
171  1.70  0.  0.
172  1.71  0.  0.
173  1.72  0.  0.
174  1.73  0.  0.
175  1.74  0.  0.
176  1.75  0.  0.
177  1.76  0.  0.
178  1.77  0.  0.
179  1.78  0.  0.
180  1.79  0.  0.
181  1.80  0.  0.
182  1.81  0.  0.
183  1.82  0.  0.
184  1.83  0.  0.
185  1.84  0.  0.
186  1.85  0.  0.
187  1.86  0.  0.
188  1.87  0.  0.
189  1.88  0.  0.
190  1.89  0.  0.
191  1.90  0.  0.
192  1.91  0.  0.
193  1.92  0.  0.
194  1.93  0.  0.
195  1.94  0.  0.
196  1.95  0.  0.
197  1.96  0.  0.
198  1.97  0.  0.
199  1.98  0.  0.
200  1.99  0.  0.
201  2.00  0.  0.
202  2.01  0.  0.
203  2.02  0.  0.
204  2.03  0.  0.
205  2.04  0.  0.
206  2.05  0.  0.
207  2.06  0.  0.
208  2.07  0.  0.
209  2.08  0.  0.
210  2.09  0.  0.
211  2.10  0.  0.
212  2.11  0.  0.
213  2.12  0.  0.
214  2.13  0.  0.
215  2.14  0.  0.
216  2.15  0.  0.
217  2.16  0.  0.
218  2.17  0.  0.
219  2.18  0.  0.
220  2.19  0.  0.
221  2.20  0.  0.
222  2.21  0.  0.
223  2.22  0.  0.
224  2.23  0.  0.
225  2.24  0.  0.
226  2.25  0.  0.
227  2.26  0.  0.
228  2.27  0.  0.
229  2.28  0.  0.
230  2.29  0.  0.
231  2.30  0.  0.
232  2.31  0.  0.
233  2.32  0.  0.
234  2.33  0.  0.
235  2.34  0.  0.
236  2.35  0.  0.
237  2.36  0.  0.
238  2.37  0.  0.
239  2.38  0.  0.
240  2.39  0.  0.
241  2.40  0.  0.
242  2.41  0.  0.
243  2.42  0.  0.
244  2.43  0.  0.
245  2.44  0.  0.
246  2.45  0.  0.
247  2.46  0.  0.
248  2.47  0.  0.
249  2.48  0.  0.
250  2.49  0.  0.
251  2.50  0.  0.
252  2.51  0.  0.
253  2.52  0.  0.
254  2.53  0.  0.
255  2.54  0.  0.
256  2.55  0.  0.
257  2.56  0.  0.
258  2.57  0.  0.
259  2.58  0.  0.
260  2.59  0.  0.
261  2.60  0.  0.
262  2.61  0.  0.
263  2.62  0.  0.
264  2.63  0.  0.
265  2.64  0.  0.
266  2.65  0.  0.
267  2.66  0.  0.
268  2.67  0.  0.
269  2.68  0.  0.
270  2.69  0.  0.
271  2.70  0.  0.
272  2.71  0.  0.
273  2.72  0.  0.
274  2.73  0.  0.
275  2.74  0.  0.
276  2.75  0.  0.
277  2.76  0.  0.
278  2.77  0.  0.
279  2.78  0.  0.
280  2.79  0.  0.
281  2.80  0.  0.
282  2.81  0.  0.
283  2.82  0.  0.
284  2.83  0.  0.
285  2.84  0.  0.
286  2.85  0.  0.
287  2.86  0.  0.
288  2.87  0.  0.
289  2.88  0.  0.
290  2.89  0.  0.
291  2.90  0.  0.
292  2.91  0.  0.
293  2.92  0.  0.
294  2.93  0.  0.
295  2.94  0.  0.
296  2.95  0.  0.
297  2.96  0.  0.
298  2.97  0.  0.
299  2.98  0.  0.
300  2.99  0.  0.
301  3.00  0.  0.
302  3.01  0.  0.
303  3.02  0.  0.
304  3.03  0.  0.
305  3.04  0.  0.
306  3.05  0.  0.
307  3.06  0.  0.
308  3.07  0.  0.
309  3.08  0.  0.
310  3.09  0.  0.
311  3.10  0.  0.
312  3.11  0.  0.
313  3.12  0.  0.
314  3.13  0.  0.
315  3.14  0.  0.
316  3.15  0.  0.
317  3.16  0.  0.
318  3.17  0.  0.
319  3.18  0.  0.
320  3.19  0.  0.
321  3.20  0.  0.
322  3.21  0.  0.
323  3.22  0.  0.
324  3.23  0.  0.
325  3.24  0.  0.
326  3.25  0.  0.
327  3.26  0.  0.
328  3.27  0.  0.
329  3.28  0.  0.
330  3.29  0.  0.
331  3.30  0.  0.
332  3.31  0.  0.
333  3.32  0.  0.
334  3.33  0.  0.
335  3.34  0.  0.
336  3.35  0.  0.
337  3.36  0.  0.
338  3.37  0.  0.
339  3.38  0.  0.
340  3.39  0.  0.
341  3.40  0.  0.
342  3.41  0.  0.
343  3.42  0.  0.
344  3.43  0.  0.
345  3.44  0.  0.
346  3.45  0.  0.
347  3.46  0.  0.
348  3.47  0.  0.
349  3.48  0.  0.
350  3.49  0.  0.
351  3.50  0.  0.
352  3.51  0.  0.
353  3.52  0.  0.
354  3.53  0.  0.
355  3.54  0.  0.
356  3.55  0.  0.
357  3.56  0.  0.
358  3.57  0.  0.
359  3.58  0.  0.
360  3.59  0.  0.
361  3.60  0.  0.
362  3.61  0.  0.
363  3.62  0.  0.
364  3.63  0.  0.
365  3.64  0.  0.
366  3.65  0.  0.
367  3.66  0.  0.
368  3.67  0.  0.
369  3.68  0.  0.
370  3.69  0.  0.
371  3.70  0.  0.
372  3.71  0.  0.
373  3.72  0.  0.
374  3.73  0.  0.
375  3.74  0.  0.
376  3.75  0.  0.
377  3.76  0.  0.
378  3.77  0.  0.
379  3.78  0.  0.
380  3.79  0.  0.
381  3.80  0.  0.
382  3.81  0.  0.
383  3.82  0.  0.
384  3.83  0.  0.
385  3.84  0.  0.
386  3.85  0.  0.
387  3.86  0.  0.
388  3.87  0.  0.
389  3.88  0.  0.
390  3.89  0.  0.
391  3.90  0.  0.
392  3.91  0.  0.
393  3.92  0.  0.
394  3.93  0.  0.
395  3.94  0.  0.
396  3.95  0.  0.
397  3.96  0.  0.
398  3.97  0.  0.
399  3.98  0.  0.
400  3.99  0.  0.
401  4.00  0.  0.
402  4.01  0.  0.
403  4.02  0.  0.
404  4.03  0.  0.
405  4.04  0.  0.
406  4.05  0.  0.
407  4.06  0.  0.
408  4.07  0.  0.
409  4.08  0.  0.
410  4.09  0.  0.
411  4.10  0.  0.
412  4.11  0.  0.
413  4.12  0.  0.
414  4.13  0.  0.
415  4.14  0.  0.
416  4.15  0.  0.
417  4.16  0.  0.
418  4.17  0.  0.
419  4.18  0.  0.
420  4.19  0.  0.
421  4.20  0.  0.
422  4.21  0.  0.
423  4.22  0.  0.
424  4.23  0.  0.
425  4.24  0.  0.
426  4.25  0.  0.
427  4.26  0.  0.
428  4.27  0.  0.
429  4.28  0.  0.
430  4.29  0.  0.
431  4.30  0.  0.
432  4.31  0.  0.
433  4.32  0.  0.
434  4.33  0.  0.
435  4.34  0.  0.
436  4.35  0.  0.
437  4.36  0.  0.
438  4.37  0.  0.
439  4.38  0.  0.
440  4.39  0.  0.
441  4.40  0.  0.
442  4.41  0.  0.
443  4.42  0.  0.
444  4.43  0.  0.
445  4.44  0.  0.
446  4.45  0.  0.
447  4.46  0.  0.
448  4.47  0.  0.
449  4.48  0.  0.
450  4.49  0.  0.
451  4.50  0.  0.
452  4.51  0.  0.
453  4.52  0.  0.
454  4.53  0.  0.
455  4.54  0.  0.
456  4.55  0.  0.
457  4.56  0.  0.
458  4.57  0.  0.
459  4.58  0.  0.
460  4.59  0.  0.
461  4.60  0.  0.
462  4.61  0.  0.
463  4.62  0.  0.
464  4.63  0.  0.
465  4.64  0.  0.
466  4.65  0.  0.
467  4.66  0.  0.
468  4.67  0.  0.
469  4.68  0.  0.
470  4.69  0.  0.
471  4.70  0.  0.
472  4.71  0.  0.
473  4.72  0.  0.
474  4.73  0.  0.
475  4.74  0.  0.
476  4.75  0.  0.
477  4.76  0.  0.
478  4.77  0.  0.
479  4.78  0.  0.
480  4.79  0.  0.
481  4.80  0.  0.
482  4.81  0.  0.
483  4.82  0.  0.
484  4.83  0.  0.
485  4.84  0.  0.
486  4.85  0.  0.
487  4.86  0.  0.
488  4.87  0.  0.
489  4.88  0.  0.
490  4.89  0.  0.
491  4.90  0.  0.
492  4.91  0.  0.
493  4.92  0.  0.
494  4.93  0.  0.
495  4.94  0.  0.
496  4.95  0.  0.
497  4.96  0.  0.
498  4.97  0.  0.
499  4.98  0.  0.
500  4.99  0.  0.
501  5.00  0.  0.
502  5.01  0.  0.
503  5.02  0.  0.
504  5.03  0.  0.
505  5.04  0.  0.
506  5.05  0.  0.
507  5.06  0.  0.
508  5.07  0.  0.
509  5.08  0.  0.
510  5.09  0.  0.
511  5.10  0.  0.
512  5.11  0.  0.
513  5.12  0.  0.
514  5.13  0.  0.
515  5.14  0.  0.
516  5.15  0.  0.
517  5.16  0.  0.
518  5.17  0.  0.
519  5.18  0.  0.
520  5.19  0.  0.
521  5.20  0.  0.
522  5.21  0.  0.
523  5.22  0.  0.
524  5.23  0.  0.
525  5.24  0.  0.
526  5.25  0.  0.
527  5.26  0.  0.
528  5.27  0.  0.
529  5.28  0.  0.
530  5.29  0.  0.
531  5.30  0.  0.
532  5.31  0.  0.
533  5.32  0.  0.
534  5.33  0.  0.
535  5.34  0.  0.
536  5.35  0.  0.
537  5.36  0.  0.
538  5.37  0.  0.
539  5.38  0.  0.
540  5.39  0.  0.
541  5.40  0.  0.
542  5.41  0.  0.
543  5.42  0.  0.
544  5.43  0.  0.
545  5.44  0.  0.
546  5.45  0.  0.
547  5.46  0.  0.
548  5.47  0.  0.
549  5.48  0.  0.
550  5.49  0.  0.
551  5.50  0.  0.
552  5.51  0.  0.
553  5.52  0.  0.
554  5.53  0.  0.
555  5.54  0.  0.
556  5.55  0.  0.
557  5.56  0.  0.
558  5.57  0.  0.
559  5.58  0.  0.
560  5.59  0.  0.
561  5.60  0.  0.
562  5.61  0.  0.
563  5.62  0.  0.
564  5.63  0.  0.
565  5.64  0.  0.
566  5.65  0.  0.
567  5.66  0.  0.
568  5.67  0.  0.
569  5.68  0.  0.
570  5.69  0.  0.
571  5.70  0.  0.
572  5.71  0.  0.
573  5.72  0.  0.
574  5.73  0.  0.
575  5.74  0.  0.
576  5.75  0.  0.
577  5.76  0.  0.
578  5.77  0.  0.
579  5.78  0.  0.
580  5.79  0.  0.
581  5.80  0.  0.
582  5.81  0.  0.
583  5.82  0.  0.
584  5.83  0.  0.
585  5.84  0.  0.
586  5.85  0.  0.
587  5.86  0.  0.
588  5.87  0.  0.
589  5.88  0.  0.
590  5.89  0.  0.
591  5.90  0.  0.
592  5.91  0.  0.
593  5.92  0.  0.
594  5.93  0.  0.
595  5.94  0.  0.
596  5.95  0.  0.
597  5.96  0.  0.
598  5.97  0.  0.
599  5.98  0.  0.
600  5.99  0.  0.
1                         4.5292500312425E+00 -2.3657897318707E-01 -3.3804761950463E-02
1  0.0000000000000E+00 -1.9236685300239E-09 -1.2468510153171E-08 -2.3492369551851E-08
2  1.0000000000000E-02  2.1245094398030E-03  1.6861836734724E-04 -4.1903593202468E-05
3  2.0000000000000E-02  8.4889060376638E-03  6.8306226398105E-04 -1.5091521987334E-04
4  3.0000000000000E-02  1.9065791861473E-02  1.5688084316402E-03 -2.7749533631143E-04
5  4.0000000000000E-02  3.3809495707607E-02  2.8673603470195E-03 -3.4092328004233E-04
6  5.0000000000000E-02  5.2656065434873E-02  4.6348383903572E-03 -2.3201483138206E-04
7  6.0000000000000E-02  7.5523265721336E-02  6.9400590157578E-03  1.8317255260692E-04
8  7.0000000000000E-02  1.0231058943577E-01  9.8621542835616E-03  1.0587432831875E-03
9  8.0000000000000E-02  1.3289929273911E-01  1.3487795583578E-02  2.5635959078372E-03
10  9.0000000000000E-02  1.6715246565650E-01  1.7908096263643E-02  4.8754246162333E-03
11  1.0000000000000E-01  2.0491515113582E-01  2.3215276909635E-02  8.1742476528274E-03
12  1.1000000000000E-01  2.4601452649269E-01  2.9499183969494E-02  1.2635633607129E-02
13  1.2000000000000E-01  2.9026016160024E-01  3.6843757098661E-02  1.8423805677478E-02
14  1.3000000000000E-01  3.3744436819464E-01  4.5323542901089E-02  2.5684808714306E-02
15  1.4000000000000E-01  3.8734265422102E-01  5.5000352581588E-02  3.4539924013327E-02
16  1.5000000000000E-01  4.3971429624140E-01  6.5920158403892E-02  4.5079512431168E-02
17  1.6000000000000E-01  4.9430304157738E-01  7.8110318814880E-02  5.7357457515324E-02
18  1.7000000000000E-01  5.5083795008935E-01  9.1577214758636E-02  7.1386367181076E-02
19  1.8000000000000E-01  6.0903438333504E-01  1.0630437023073E-01  8.7133675316592E-02
20  1.9000000000000E-01  6.6859514634778E-01  1.2225111873026E-01  1.0451876395827E-01
21  2.0000000000000E-01  7.2921178448191E-01  1.3935186422131E-01  1.2341120282247E-01
22  2.1000000000000E-01  7.9056603475171E-01  1.5751597082372E-01  1.4363017657372E-01
23  2.2000000000000E-01  8.5233142790750E-01  1.7662830005524E-01  1.6494514186530E-01
24  2.3000000000000E-01  9.1417503422324E-01  1.9655039841307E-01  1.8707772658534E-01
25  2.4000000000000E-01  9.7575934268823E-01  2.1712232179625E-01  2.0970485357399E-01
26  2.5000000000000E-01  1.0367442600808E+00  2.3816506712669E-01  2.3246304107722E-01
27  2.6000000000000E-01  1.0967892133308E+00  2.5948356591913E-01  2.5495380308068E-01
28  2.7000000000000E-01  1.1555553357265E+00  2.8087017986298E-01  2.7675004513801E-01
29  2.8000000000000E-01  1.2127077149608E+00  3.0210862507725E-01  2.9740332603488E-01
30  2.9000000000000E-01  1.2679176788062E+00  3.2297823991897E-01  3.1645183324284E-01
31  3.0000000000000E-01  1.3208650924232E+00  3.4325850136926E-01  3.3342890116579E-01
32  3.1000000000000E-01  1.3712406399785E+00  3.6273368734412E-01  3.4787188615367E-01
33  3.2000000000000E-01  1.4187480624342E+00  3.8119757698913E-01  3.5933120153706E-01
34  3.3000000000000E-01  1.4631063230849E+00  3.9845807826943E-01  3.6737930981652E-01
35  3.4000000000000E-01  1.5040516726828E+00  4.1434167205233E-01  3.7161946780165E-01
36  3.5000000000000E-01  1.5413395868186E+00  4.2869756443114E-01  3.7169402401316E-01
37  3.6000000000000E-01  1.5747465495918E+00  4.4140144422229E-01  3.6729207598355E-01
38  3.7000000000000E-01  1.6040716595046E+00  4.5235875028923E-01  3.5815630806954E-01
39  3.8000000000000E-01  1.6291380359074E+00  4.6150736344907E-01  3.4408884774387E-01
40  3.9000000000000E-01  1.6497940071672E+00  4.6881964998643E-01  3.2495599969071E-01
41  4.0000000000000E-01  1.6659140649723E+00  4.7430379796519E-01  3.0069174191369E-01
42  4.1000000000000E-01  1.6773995727608E+00  4.7800440327679E-01  2.7129989591145E-01
43  4.2000000000000E-01  1.6841792200934E+00  4.8000227933471E-01  2.3685491314754E-01
44  4.3000000000000E-01  1.6862092188051E+00  4.8041348213108E-01  1.9750125183452E-01
45  4.4000000000000E-01  1.6834732408863E+00  4.7938756059596E-01  1.5345135072650E-01
46  4.5000000000000E-01  1.6759821021617E+00  4.7710506041709E-01  1.0498223939251E-01
47  4.6000000000000E-01  1.6637731998890E+00  4.7377432725259E-01  5.2430856545243E-02
48  4.7000000000000E-01  1.6469097162796E+00  4.6962767217597E-01 -3.8118213484944E-03
49  4.8000000000000E-01  1.6254796035824E+00  4.6491697781867E-01 -6.3307710497366E-02
50  4.9000000000000E-01  1.5995943696896E+00  4.5990883763613E-01 -1.2557945302279E-01
51  5.0000000000000E-01  1.5693876861363E+00  4.5487933266835E-01 -1.9011897475703E-01
52  5.1000000000000E-01  1.5350138428305E+00  4.5010855978737E-01 -2.5639657144341E-01
53  5.2000000000000E-01  1.4966460757958E+00  4.4587503246846E-01 -3.2387031383933E-01
54  5.3000000000000E-01  1.4544747956044E+00  4.4245007939120E-01 -3.9199555381465E-01
55  5.4000000000000E-01  1.4087057449937E+00  4.4009236753753E-01 -4.6023431032463E-01
56  5.5000000000000E-01  1.3595581143729E+00  4.3904267483965E-01 -5.2806431623416E-01
57  5.6000000000000E-01  1.3072626435442E+00  4.3951903284593E-01 -5.9498751439628E-01
58  5.7000000000000E-01  1.2520597369894E+00  4.4171235238972E-01 -6.6053780400720E-01
59  5.8000000000000E-01  1.1941976185371E+00  4.4578263500828E-01 -7.2428785583654E-01
60  5.9000000000000E-01  1.1339305491679E+00  4.5185586007705E-01 -7.8585483708358E-01
61  6.0000000000000E-01  1.0715171291764E+00  4.6002162257017E-01 -8.4490491285947E-01
62  6.1000000000000E-01  1.0072187029674E+00  4.7033157936251E-01 -9.0115642105169E-01
63  6.2000000000000E-01  9.4129788147327E-01  4.8279874342957E-01 -9.5438164991283E-01
64  6.3000000000000E-01  8.7401719363496E-01  4.9739764560308E-01 -1.0044071823699E+00
65  6.4000000000000E-01  8.0563787466562E-01  5.1406536315344E-01 -1.0511128069600E+00
66  6.5000000000000E-01  7.3641879501404E-01  5.3270339387226E-01 -1.0944290316107E+00
67  6.6000000000000E-01  6.6661553014840E-01  5.5318033400515E-01 -1.1343332723156E+00
68  6.7000000000000E-01  5.9647956758968E-01  5.7533529882262E-01 -1.1708448232279E+00
69  6.8000000000000E-01  5.2625764412581E-01  5.9898200629064E-01 -1.2040187469644E+00
70  6.9000000000000E-01  4.5619120291943E-01  6.2391342766092E-01 -1.2339388531430E+00
71  7.0000000000000E-01  3.8651595736418E-01  6.4990689426569E-01 -1.2607099586273E+00
72  7.1000000000000E-01  3.1746154611875E-01  6.7672953774011E-01 -1.2844496439435E+00
73  7.2000000000000E-01  2.4925126181496E-01  7.0414393163127E-01 -1.3052797362899E+00
74  7.3000000000000E-01  1.8210183454660E-01  7.3191379613999E-01 -1.3233177600052E+00
75  7.4000000000000E-01  1.1622325043463E-01  7.5980962477079E-01 -1.3386685999693E+00
76  7.5000000000000E-01  5.1818585355410E-02  7.8761409204895E-01 -1.3514166219630E+00
77  7.6000000000000E-01 -1.0916165681876E-02  8.1512710524034E-01 -1.3616184864447E+00
78  7.7000000000000E-01 -7.1792282021971E-02  8.4217037013404E-01 -1.3692968786063E+00
79  7.8000000000000E-01 -1.3062855064893E-01  8.6859135129892E-01 -1.3744353581531E+00
80  7.9000000000000E-01 -1.8725155408564E-01  8.9426652060209E-01 -1.3769745074003E+00
81  8.0000000000000E-01 -2.4149602511524E-01  9.1910380390390E-01 -1.3768095264784E+00
82  8.1000000000000E-01 -2.9320527750054E-01  9.4304415437808E-01 -1.3737893903410E+00
83  8.2000000000000E-01 -3.4223171849844E-01  9.6606220144242E-01 -1.3677176445884E+00
84  8.3000000000000E-01 -3.8843744532535E-01  9.8816594636411E-01 -1.3583548767307E+00
85  8.4000000000000E-01 -4.3169492392136E-01  1.0093954987277E+00 -1.3454228573002E+00
86  8.5000000000000E-01 -4.7188774448415E-01  1.0298208715863E+00 -1.3286103021984E+00
87  8.6000000000000E-01 -5.0891144440261E-01  1.0495388767080E+00 -1.3075801648046E+00
88  8.7000000000000E-01 -5.4267438551702E-01  1.0686691843199E+00 -1.2819783247498E+00
89  8.8000000000000E-01 -5.7309866917117E-01  1.0873496335866E+00 -1.2514435008491E+00
90  8.9000000000000E-01 -6.0012106939919E-01  1.1057309002103E+00 -1.2156181795074E+00
91  9.0000000000000E-01 -6.2369396189784E-01  1.1239706454909E+00 -1.1741603178606E+00
92  9.1000000000000E-01 -6.4378622425567E-01  1.1422272864984E+00 -1.1267555538557E+00
93  9.2000000000000E-01 -6.6038408131614E-01  1.1606535392575E+00 -1.0731296341402E+00
94  9.3000000000000E-01 -6.7349186860018E-01  1.1793898957153E+00 -1.0130607556442E+00
95  9.4000000000000E-01 -6.8313268644861E-01  1.1985582004698E+00 -9.4639150858841E-01
96  9.5000000000000E-01 -6.8934891799484E-01  1.2182554946155E+00 -8.7304010767441E-01
97  9.6000000000000E-01 -6.9220258525378E-01  1.2385482915045E+00 -7.9301060457120E-01
98  9.7000000000000E-01 -6.9177551950730E-01  1.2594674427322E+00 -7.0640178852778E-01
99  9.8000000000000E-01 -6.8816932475649E-01  1.2810037423131E+00 -6.1341450283898E-01
100  9.9000000000000E-01 -6.8150511625481E-01  1.3031044029937E+00 -5.1435713264853E-01
101  1.0000000000000E+00 -6.7192301997441E-01  1.3256705212276E+00 -4.0964905368267E-01
102  1.0100000000000E+00 -6.5958142321833E-01  1.3485556268497E+00 -2.9982187131952E-01
103  1.0200000000000E+00 -6.4465597138661E-01  1.3715653903550E+00 -1.8551832414181E-01
104  1.0300000000000E+00 -6.2733831103154E-01  1.3944585354104E+00 -6.7488774841468E-02
105  1.0400000000000E+00 -6.0783458468525E-01  1.4169489773630E+00  5.3414736997701E-02
106  1.0500000000000E+00 -5.8636368840241E-01  1.4387091805916E+00  1.7624685212561E-01
107  1.0600000000000E+00 -5.6315530839165E-01  1.4593746992919E+00  2.9997957658037E-01
108  1.0700000000000E+00 -5.3844775840053E-01  1.4785498382565E+00  4.2351515840681E-01
109  1.0800000000000E+00 -5.1248564454214E-01  1.4958143430573E+00  5.4570096820742E-01
110  1.0900000000000E+00 -4.8551738886954E-01  1.5107310034836E+00  6.6534614671029E-01
111  1.1000000000000E+00 -4.5779264713127E-01  1.5228540305665E+00  7.8123973756471E-01
112  1.1100000000000E+00 -4.2955965963392E-01  1.5317380468091E+00  8.9216998399428E-01
113  1.1200000000000E+00 -4.0106257693450E-01  1.5369475116522E+00  9.9694443434285E-01
114  1.1300000000000E+00 -3.7253880407948E-01  1.5380663903388E+00  1.0944104751051E+00
115  1.1400000000000E+00 -3.4421640825082E-01  1.5347078644637E+00  1.1834758912433E+00
116  1.1500000000000E+00 -3.1631163491463E-01  1.5265238769510E+00  1.2631290431396E+00
117  1.1600000000000E+00 -2.8902657687219E-01  1.5132143031492E+00  1.3324582477250E+00
118  1.1700000000000E+00 -2.6254703898003E-01  1.4945355432648E+00  1.3906699583644E+00
119  1.1800000000000E+00 -2.3704063873626E-01  1.4703083394944E+00  1.4371053540299E+00
120  1.1900000000000E+00 -2.1265517948771E-01  1.4404246337440E+00  1.4712549727533E+00
121  1.2000000000000E+00 -1.8951732869626E-01  1.4048532987301E+00  1.4927710573320E+00
122  1.2100000000000E+00 -1.6773162866866E-01  1.3636445959003E+00  1.5014773215502E+00
123  1.2200000000000E+00 -1.4737986139227E-01  1.3169332380017E+00  1.4973758928184E+00
124  1.2300000000000E+00 -1.2852078283237E-01  1.2649399613726E+00  1.4806512404410E+00
125  1.2400000000000E+00 -1.1119023530217E-01  1.2079715428116E+00  1.4516709570793E+00
126  1.2500000000000E+00 -9.5401639435481E-02  1.1464192276133E+00  1.4109833233209E+00
127  1.2600000000000E+00 -8.1146860092114E-02  1.0807555680530E+00  1.3593116496426E+00
128  1.2700000000000E+00 -6.8397433253771E-02  1.0115297049996E+00  1.2975454560341E+00
129  1.2800000000000E+00 -5.7106133843057E-02  9.3936115840343E-01  1.2267286151092E+00
130  1.2900000000000E+00 -4.7208857572750E-02  8.6493222441461E-01  1.1480446482594E+00
131  1.3000000000000E+00 -3.8626783487144E-02  7.8897910742008E-01  1.0627994255191E+00
132  1.3100000000000E+00 -3.1268778002534E-02  7.1228194334906E-01  9.7240157633299E-01
133  1.3200000000000E+00 -2.5033996087751E-02  6.3565389568017E-01  8.7834096936813E-01
134  1.3300000000000E+00 -1.9814630850412E-02  5.5992952719144E-01  7.8216566388648E-01
135  1.3400000000000E+00 -1.5498759325655E-02  4.8595266804871E-01  6.8545777184885E-01