Db    ONCVPSP-4.0.1  r_core=   1.10309   1.20665   1.20665   1.20665
105.0000     45.0000      231012    zatom,zion,pspd
8   -1012   3     4   600     0    pspcod,pspxc,lmax,lloc,mmax,r2well
5.99000000  3.50000000  0.00000000    rchrg fchrg qchrg
3     3     2     2    nproj
3     1           extension_switch
3     3     3    nprojso
0                         2.2602488427922E+01 -9.5074580386791E+00 -2.9969384303685E-01
1  0.0000000000000E+00 -2.9318572680737E-08 -3.7885033998819E-10  1.3952807731421E-07
2  1.0000000000000E-02  2.1314126534587E-01  4.5650418643351E-02 -9.1503144504591E-02
3  2.0000000000000E-02  4.2411670802414E-01  9.1333406586295E-02 -1.8103097964348E-01
4  3.0000000000000E-02  6.3078779735978E-01  1.3708058908108E-01 -2.6665723428396E-01
5  4.0000000000000E-02  8.3107016875402E-01  1.8292170941831E-01 -3.4655240578940E-01
6  5.0000000000000E-02  1.0229596697083E+00  2.2888370339227E-01 -4.1902891211041E-01
7  6.0000000000000E-02  1.2045571829793E+00  2.7498979261138E-01 -4.8258246986141E-01
8  7.0000000000000E-02  1.3740918546388E+00  3.2125860342962E-01 -5.3592861117330E-01
9  8.0000000000000E-02  1.5299423841294E+00  3.6770331865318E-01 -5.7803339164119E-01
10  9.0000000000000E-02  1.6706560688130E+00  4.1433086959720E-01 -6.0813750778698E-01
11  1.0000000000000E-01  1.7949653362167E+00  4.6114117649650E-01 -6.2577322998323E-01
12  1.1000000000000E-01  1.9018015423024E+00  5.0812644567723E-01 -6.3077375997863E-01
13  1.2000000000000E-01  1.9903058626487E+00  5.5527053223508E-01 -6.2327483478968E-01
14  1.3000000000000E-01  2.0598371543865E+00  6.0254837720323E-01 -6.0370861432383E-01
15  1.4000000000000E-01  2.1099767190190E+00  6.4992552829269E-01 -5.7279010216150E-01
16  1.5000000000000E-01  2.1405299487748E+00  6.9735775321652E-01 -5.3149655113434E-01
17  1.6000000000000E-01  2.1515248908540E+00  7.4479075433860E-01 -4.8104049173078E-01
18  1.7000000000000E-01  2.1432078137877E+00  7.9215999289450E-01 -4.2283718656143E-01
19  1.8000000000000E-01  2.1160359072072E+00  8.3939063030109E-01 -3.5846745347892E-01
20  1.9000000000000E-01  2.0706672897334E+00  8.8639759309466E-01 -2.8963690967506E-01
21  2.0000000000000E-01  2.0079485387112E+00  9.3308576681621E-01 -2.1813276640648E-01
22  2.1000000000000E-01  1.9288999894720E+00  9.7935032270581E-01 -1.4577934717758E-01
23  2.2000000000000E-01  1.8346990802431E+00  1.0250771793956E+00 -7.4393510632300E-02
24  2.3000000000000E-01  1.7266620413447E+00  1.0701435999291E+00 -5.7411335364145E-03
25  2.4000000000000E-01  1.6062242437426E+00  1.1144189224186E+00  5.8504249356090E-02
26  2.5000000000000E-01  1.4749195322702E+00  1.1577654205262E+00  1.1679964052092E-01
27  2.6000000000000E-01  1.3343588729779E+00  1.2000392877612E+00  1.6776671740793E-01
28  2.7000000000000E-01  1.1862086423136E+00  1.2410917373846E+00  2.1022115808994E-01
29  2.8000000000000E-01  1.0321688785103E+00  1.2807702075512E+00  2.4319655577474E-01
30  2.9000000000000E-01  8.7395180308146E-01  1.3189196592578E+00  2.6596249104367E-01
31  3.0000000000000E-01  7.1326090322870E-01  1.3553839527594E+00  2.7803650535267E-01
32  3.1000000000000E-01  5.5177084482963E-01  1.3900072864111E+00  2.7918989517782E-01
33  3.2000000000000E-01  3.9110846115032E-01  1.4226356804495E+00  2.6944741766281E-01
34  3.3000000000000E-01  2.3283503518352E-01  1.4531184870702E+00  2.4908116054231E-01
35  3.4000000000000E-01  7.8430064243107E-02  1.4813099073397E+00  2.1859897673801E-01
36  3.5000000000000E-01 -7.0723335170695E-02  1.5070704950134E+00  1.7872801320772E-01
37  3.6000000000000E-01 -2.1335125552241E-01  1.5302686272403E+00  1.3039397101667E-01
38  3.7000000000000E-01 -3.4829996406027E-01  1.5507819224218E+00  7.4696816614275E-02
39  3.8000000000000E-01 -4.7454494181277E-01  1.5684985861579E+00  1.2883721323056E-02
40  3.9000000000000E-01 -5.9119796111481E-01  1.5833186672428E+00 -5.3679963659553E-02
41  4.0000000000000E-01 -6.9751219540651E-01  1.5951552070358E+00 -1.2354088563367E-01
42  4.1000000000000E-01 -7.9288538162286E-01  1.6039352672087E+00 -1.9518823259877E-01
43  4.2000000000000E-01 -8.7686107997168E-01  1.6096008228125E+00 -2.6708389470369E-01
44  4.3000000000000E-01 -9.4912809807079E-01  1.6121095097585E+00 -3.3769156603382E-01
45  4.4000000000000E-01 -1.0095181661562E+00  1.6114352181390E+00 -4.0550419084501E-01
46  4.5000000000000E-01 -1.0580019673174E+00  1.6075685252389E+00 -4.6906925490267E-01
47  4.6000000000000E-01 -1.0946836414682E+00  1.6005169645772E+00 -5.2701152848820E-01
48  4.7000000000000E-01 -1.1197938940732E+00  1.5903051297889E+00 -5.7805297852798E-01
49  4.8000000000000E-01 -1.1336818506288E+00  1.5769746145687E+00 -6.2102967881772E-01
50  4.9000000000000E-01 -1.1368058056671E+00  1.5605837921887E+00 -6.5490565522547E-01
51  5.0000000000000E-01 -1.1297230207762E+00  1.5412074402260E+00 -6.7878370313245E-01
52  5.1000000000000E-01 -1.1130787299725E+00  1.5189362180513E+00 -6.9191330371124E-01
53  5.2000000000000E-01 -1.0875945128980E+00  1.4938760062998E+00 -6.9369584102534E-01
54  5.3000000000000E-01 -1.0540561968992E+00  1.4661471189491E+00 -6.8368738109043E-01
55  5.4000000000000E-01 -1.0133014482389E+00  1.4358833997417E+00 -6.6159931542369E-01
56  5.5000000000000E-01 -9.6620721061069E-01  1.4032312155141E+00 -6.2729719447300E-01
57  5.6000000000000E-01 -9.1367714588238E-01  1.3683483595243E+00 -5.8079808070544E-01
58  5.7000000000000E-01 -8.5662922765894E-01  1.3314028781190E+00 -5.2226673786558E-01
59  5.8000000000000E-01 -7.9598363288108E-01  1.2925718340752E+00 -4.5201094354902E-01
60  5.9000000000000E-01 -7.3265107028058E-01  1.2520400197068E+00 -3.7047616901620E-01
61  6.0000000000000E-01 -6.6752167710191E-01  1.2099986323861E+00 -2.7823981589318E-01
62  6.1000000000000E-01 -6.0145460705386E-01  1.1666439245305E+00 -1.7600513733518E-01
63  6.2000000000000E-01 -5.3526842294523E-01  1.1221758393835E+00 -6.4594904945982E-02
64  6.3000000000000E-01 -4.6973239685588E-01  1.0767966431251E+00  5.5055183996316E-02
65  6.4000000000000E-01 -4.0555880896974E-01  1.0307095630225E+00  1.8190342787232E-01
66  6.5000000000000E-01 -3.4339632333640E-01  9.8411744051722E-01  3.1480949594780E-01
67  6.6000000000000E-01 -2.8382450483902E-01  9.3722140737862E-01  4.5254242898322E-01
68  6.7000000000000E-01 -2.2734952656487E-01  8.9021959237352E-01  5.9378946964940E-01
69  6.8000000000000E-01 -1.7440110067087E-01  8.4330586532659E-01  7.3716594452291E-01
70  6.9000000000000E-01 -1.2533064882470E-01  7.9666862500410E-01  8.8122641950784E-01
71  7.0000000000000E-01 -8.0410710537016E-02  7.5048963695044E-01  1.0244773323902E+00
72  7.1000000000000E-01 -3.9835569390714E-02  7.0494292724701E-01  1.1653912697461E+00
73  7.2000000000000E-01 -3.7230585664019E-03  6.6019373814036E-01  1.3024230013005E+00
74  7.3000000000000E-01  2.7882511538433E-02  6.1639755158432E-01  1.4340273146201E+00
75  7.4000000000000E-01  5.5006379063403E-02  5.7369918693693E-01  1.5586786090557E+00
76  7.5000000000000E-01  7.7738402830387E-02  5.3223197931439E-01  1.6748921132083E+00
77  7.6000000000000E-01  9.6227290340376E-02  4.9211704539412E-01  1.7812464886094E+00
78  7.7000000000000E-01  1.1067410600586E-01  4.5346264373444E-01  1.8764074779922E+00
79  7.8000000000000E-01  1.2132519698901E-01  4.1636363689240E-01  1.9591521541310E+00
80  7.9000000000000E-01  1.2846468466321E-01  3.8090106272720E-01  2.0283932295451E+00
81  8.0000000000000E-01  1.3240667764184E-01  3.4714182222557E-01  2.0832028032891E+00
82  8.1000000000000E-01  1.3348736718310E-01  3.1513849093420E-01  2.1228348532759E+00
83  8.2000000000000E-01  1.3205716729095E-01  2.8492926059039E-01  2.1467457355399E+00
84  8.3000000000000E-01  1.2847305976886E-01  2.5653801677305E-01  2.1546119293953E+00
85  8.4000000000000E-01  1.2309129869522E-01  2.2997455732403E-01  2.1463442728344E+00
86  8.5000000000000E-01  1.1626061922070E-01  2.0523495489983E-01  2.1220979681245E+00
87  8.6000000000000E-01  1.0831608227212E-01  1.8230206529861E-01  2.0822777048803E+00
88  8.7000000000000E-01  9.9573669824491E-02  1.6114618117507E-01  2.0275373473222E+00
89  8.8000000000000E-01  9.0325725109929E-02  1.4172582842239E-01  1.9587737633403E+00
90  8.9000000000000E-01  8.0837308814358E-02  1.2398869990014E-01  1.8771145335271E+00
91  9.0000000000000E-01  7.1343516407533E-02  1.0787271835937E-01  1.7838994656817E+00
92  9.1000000000000E-01  6.2047773791910E-02  9.3307217419099E-02  1.6806560503953E+00
93  9.2000000000000E-01  5.3121099046918E-02  8.0214226344120E-02  1.5690692213423E+00
94  9.3000000000000E-01  4.4702287869644E-02  6.8509841237901E-02  1.4509460239598E+00
95  9.4000000000000E-01  3.6898950080786E-02  5.8105662174915E-02  1.3281760419857E+00
96  9.5000000000000E-01  2.9789295044559E-02  4.8910272839997E-02  1.2026886757325E+00
97  9.6000000000000E-01  2.3424535791298E-02  4.0830736503500E-02  1.0764086019171E+00
98  9.7000000000000E-01  1.7831755784964E-02  3.3774079726464E-02  9.5121096499177E-01
99  9.8000000000000E-01  1.3017059360756E-02  2.7648733141706E-02  8.2887804711375E-01
100  9.9000000000000E-01  8.9688075092879E-03  2.2365897069394E-02  7.1105933160680E-01
101  1.0000000000000E+00  5.6607254957175E-03  1.7840798667148E-02  5.9923700683359E-01
102  1.0100000000000E+00  3.0546582400902E-03  1.3993806839247E-02  4.9469904874904E-01
103  1.0200000000000E+00  1.1027438038654E-03  1.0751371277129E-02  3.9852206703194E-01
104  1.0300000000000E+00 -2.5121445490984E-04  8.0467567637140E-03  3.1156601798894E-01
105  1.0400000000000E+00 -1.0714736927032E-03  5.8205101524961E-03  2.3448347960618E-01
106  1.0500000000000E+00 -1.4333105651473E-03  4.0199742325768E-03  1.6775992511592E-01
107  1.0600000000000E+00 -1.4523527626603E-03  2.5872518238399E-03  1.1196873845997E-01
108  1.0700000000000E+00 -1.2037654472639E-03  1.4898588245778E-03  6.7187666187471E-02
109  1.0800000000000E+00 -7.7907710358044E-04  7.0783719882501E-04  3.3447333805900E-02
110  1.0900000000000E+00 -3.2045097192882E-04  2.2170568684585E-04  1.1047602132551E-02
111  1.1000000000000E+00 -2.7189530490185E-05  1.4581189185073E-05  7.7270807784857E-04
112  1.1100000000000E+00 -2.7541529406121E-07  1.4666527971594E-07  7.8106896358833E-06
113  1.1200000000000E+00  2.4155702726106E-07 -1.4136634917651E-07 -7.3467912268434E-06
114  1.13  0.  0.  0.
115  1.14  0.  0.  0.
116  1.15  0.  0.  0.
117  1.16  0.  0.  0.
118  1.17  0.  0.  0.
119  1.18  0.  0.  0.
120  1.19  0.  0.  0.
121  1.20  0.  0.  0.
122  1.21  0.  0.  0.
123  1.22  0.  0.  0.
124  1.23  0.  0.  0.
125  1.24  0.  0.  0.
126  1.25  0.  0.  0.
127  1.26  0.  0.  0.
128  1.27  0.  0.  0.
129  1.28  0.  0.  0.
130  1.29  0.  0.  0.
131  1.30  0.  0.  0.
132  1.31  0.  0.  0.
133  1.32  0.  0.  0.
134  1.33  0.  0.  0.
135  1.34  0.  0.  0.
136  1.35  0.  0.  0.
137  1.36  0.  0.  0.
138  1.37  0.  0.  0.
139  1.38  0.  0.  0.
140  1.39  0.  0.  0.
141  1.40  0.  0.  0.
142  1.41  0.  0.  0.
143  1.42  0.  0.  0.
144  1.43  0.  0.  0.
145  1.44  0.  0.  0.
146  1.45  0.  0.  0.
147  1.46  0.  0.  0.
148  1.47  0.  0.  0.
149  1.48  0.  0.  0.
150  1.49  0.  0.  0.
151  1.50  0.  0.  0.
152  1.51  0.  0.  0.
153  1.52  0.  0.  0.
154  1.53  0.  0.  0.
155  1.54  0.  0.  0.
156  1.55  0.  0.  0.
157  1.56  0.  0.  0.
158  1.57  0.  0.  0.
159  1.58  0.  0.  0.
160  1.59  0.  0.  0.
161  1.60  0.  0.  0.
162  1.61  0.  0.  0.
163  1.62  0.  0.  0.
164  1.63  0.  0.  0.
165  1.64  0.  0.  0.
166  1.65  0.  0.  0.
167  1.66  0.  0.  0.
168  1.67  0.  0.  0.
169  1.68  0.  0.  0.
170  1.69  0.  0.  0.
171  1.70  0.  0.  0.
172  1.71  0.  0.  0.
173  1.72  0.  0.  0.
174  1.73  0.  0.  0.
175  1.74  0.  0.  0.
176  1.75  0.  0.  0.
177  1.76  0.  0.  0.
178  1.77  0.  0.  0.
179  1.78  0.  0.  0.
180  1.79  0.  0.  0.
181  1.80  0.  0.  0.
182  1.81  0.  0.  0.
183  1.82  0.  0.  0.
184  1.83  0.  0.  0.
185  1.84  0.  0.  0.
186  1.85  0.  0.  0.
187  1.86  0.  0.  0.
188  1.87  0.  0.  0.
189  1.88  0.  0.  0.
190  1.89  0.  0.  0.
191  1.90  0.  0.  0.
192  1.91  0.  0.  0.
193  1.92  0.  0.  0.
194  1.93  0.  0.  0.
195  1.94  0.  0.  0.
196  1.95  0.  0.  0.
197  1.96  0.  0.  0.
198  1.97  0.  0.  0.
199  1.98  0.  0.  0.
200  1.99  0.  0.  0.
201  2.00  0.  0.  0.
202  2.01  0.  0.  0.
203  2.02  0.  0.  0.
204  2.03  0.  0.  0.
205  2.04  0.  0.  0.
206  2.05  0.  0.  0.
207  2.06  0.  0.  0.
208  2.07  0.  0.  0.
209  2.08  0.  0.  0.
210  2.09  0.  0.  0.
211  2.10  0.  0.  0.
212  2.11  0.  0.  0.
213  2.12  0.  0.  0.
214  2.13  0.  0.  0.
215  2.14  0.  0.  0.
216  2.15  0.  0.  0.
217  2.16  0.  0.  0.
218  2.17  0.  0.  0.
219  2.18  0.  0.  0.
220  2.19  0.  0.  0.
221  2.20  0.  0.  0.
222  2.21  0.  0.  0.
223  2.22  0.  0.  0.
224  2.23  0.  0.  0.
225  2.24  0.  0.  0.
226  2.25  0.  0.  0.
227  2.26  0.  0.  0.
228  2.27  0.  0.  0.
229  2.28  0.  0.  0.
230  2.29  0.  0.  0.
231  2.30  0.  0.  0.
232  2.31  0.  0.  0.
233  2.32  0.  0.  0.
234  2.33  0.  0.  0.
235  2.34  0.  0.  0.
236  2.35  0.  0.  0.
237  2.36  0.  0.  0.
238  2.37  0.  0.  0.
239  2.38  0.  0.  0.
240  2.39  0.  0.  0.
241  2.40  0.  0.  0.
242  2.41  0.  0.  0.
243  2.42  0.  0.  0.
244  2.43  0.  0.  0.
245  2.44  0.  0.  0.
246  2.45  0.  0.  0.
247  2.46  0.  0.  0.
248  2.47  0.  0.  0.
249  2.48  0.  0.  0.
250  2.49  0.  0.  0.
251  2.50  0.  0.  0.
252  2.51  0.  0.  0.
253  2.52  0.  0.  0.
254  2.53  0.  0.  0.
255  2.54  0.  0.  0.
256  2.55  0.  0.  0.
257  2.56  0.  0.  0.
258  2.57  0.  0.  0.
259  2.58  0.  0.  0.
260  2.59  0.  0.  0.
261  2.60  0.  0.  0.
262  2.61  0.  0.  0.
263  2.62  0.  0.  0.
264  2.63  0.  0.  0.
265  2.64  0.  0.  0.
266  2.65  0.  0.  0.
267  2.66  0.  0.  0.
268  2.67  0.  0.  0.
269  2.68  0.  0.  0.
270  2.69  0.  0.  0.
271  2.70  0.  0.  0.
272  2.71  0.  0.  0.
273  2.72  0.  0.  0.
274  2.73  0.  0.  0.
275  2.74  0.  0.  0.
276  2.75  0.  0.  0.
277  2.76  0.  0.  0.
278  2.77  0.  0.  0.
279  2.78  0.  0.  0.
280  2.79  0.  0.  0.
281  2.80  0.  0.  0.
282  2.81  0.  0.  0.
283  2.82  0.  0.  0.
284  2.83  0.  0.  0.
285  2.84  0.  0.  0.
286  2.85  0.  0.  0.
287  2.86  0.  0.  0.
288  2.87  0.  0.  0.
289  2.88  0.  0.  0.
290  2.89  0.  0.  0.
291  2.90  0.  0.  0.
292  2.91  0.  0.  0.
293  2.92  0.  0.  0.
294  2.93  0.  0.  0.
295  2.94  0.  0.  0.
296  2.95  0.  0.  0.
297  2.96  0.  0.  0.
298  2.97  0.  0.  0.
299  2.98  0.  0.  0.
300  2.99  0.  0.  0.
301  3.00  0.  0.  0.
302  3.01  0.  0.  0.
303  3.02  0.  0.  0.
304  3.03  0.  0.  0.
305  3.04  0.  0.  0.
306  3.05  0.  0.  0.
307  3.06  0.  0.  0.
308  3.07  0.  0.  0.
309  3.08  0.  0.  0.
310  3.09  0.  0.  0.
311  3.10  0.  0.  0.
312  3.11  0.  0.  0.
313  3.12  0.  0.  0.
314  3.13  0.  0.  0.
315  3.14  0.  0.  0.
316  3.15  0.  0.  0.
317  3.16  0.  0.  0.
318  3.17  0.  0.  0.
319  3.18  0.  0.  0.
320  3.19  0.  0.  0.
321  3.20  0.  0.  0.
322  3.21  0.  0.  0.
323  3.22  0.  0.  0.
324  3.23  0.  0.  0.
325  3.24  0.  0.  0.
326  3.25  0.  0.  0.
327  3.26  0.  0.  0.
328  3.27  0.  0.  0.
329  3.28  0.  0.  0.
330  3.29  0.  0.  0.
331  3.30  0.  0.  0.
332  3.31  0.  0.  0.
333  3.32  0.  0.  0.
334  3.33  0.  0.  0.
335  3.34  0.  0.  0.
336  3.35  0.  0.  0.
337  3.36  0.  0.  0.
338  3.37  0.  0.  0.
339  3.38  0.  0.  0.
340  3.39  0.  0.  0.
341  3.40  0.  0.  0.
342  3.41  0.  0.  0.
343  3.42  0.  0.  0.
344  3.43  0.  0.  0.
345  3.44  0.  0.  0.
346  3.45  0.  0.  0.
347  3.46  0.  0.  0.
348  3.47  0.  0.  0.
349  3.48  0.  0.  0.
350  3.49  0.  0.  0.
351  3.50  0.  0.  0.
352  3.51  0.  0.  0.
353  3.52  0.  0.  0.
354  3.53  0.  0.  0.
355  3.54  0.  0.  0.
356  3.55  0.  0.  0.
357  3.56  0.  0.  0.
358  3.57  0.  0.  0.
359  3.58  0.  0.  0.
360  3.59  0.  0.  0.
361  3.60  0.  0.  0.
362  3.61  0.  0.  0.
363  3.62  0.  0.  0.
364  3.63  0.  0.  0.
365  3.64  0.  0.  0.
366  3.65  0.  0.  0.
367  3.66  0.  0.  0.
368  3.67  0.  0.  0.
369  3.68  0.  0.  0.
370  3.69  0.  0.  0.
371  3.70  0.  0.  0.
372  3.71  0.  0.  0.
373  3.72  0.  0.  0.
374  3.73  0.  0.  0.
375  3.74  0.  0.  0.
376  3.75  0.  0.  0.
377  3.76  0.  0.  0.
378  3.77  0.  0.  0.
379  3.78  0.  0.  0.
380  3.79  0.  0.  0.
381  3.80  0.  0.  0.
382  3.81  0.  0.  0.
383  3.82  0.  0.  0.
384  3.83  0.  0.  0.
385  3.84  0.  0.  0.
386  3.85  0.  0.  0.
387  3.86  0.  0.  0.
388  3.87  0.  0.  0.
389  3.88  0.  0.  0.
390  3.89  0.  0.  0.
391  3.90  0.  0.  0.
392  3.91  0.  0.  0.
393  3.92  0.  0.  0.
394  3.93  0.  0.  0.
395  3.94  0.  0.  0.
396  3.95  0.  0.  0.
397  3.96  0.  0.  0.
398  3.97  0.  0.  0.
399  3.98  0.  0.  0.
400  3.99  0.  0.  0.
401  4.00  0.  0.  0.
402  4.01  0.  0.  0.
403  4.02  0.  0.  0.
404  4.03  0.  0.  0.
405  4.04  0.  0.  0.
406  4.05  0.  0.  0.
407  4.06  0.  0.  0.
408  4.07  0.  0.  0.
409  4.08  0.  0.  0.
410  4.09  0.  0.  0.
411  4.10  0.  0.  0.
412  4.11  0.  0.  0.
413  4.12  0.  0.  0.
414  4.13  0.  0.  0.
415  4.14  0.  0.  0.
416  4.15  0.  0.  0.
417  4.16  0.  0.  0.
418  4.17  0.  0.  0.
419  4.18  0.  0.  0.
420  4.19  0.  0.  0.
421  4.20  0.  0.  0.
422  4.21  0.  0.  0.
423  4.22  0.  0.  0.
424  4.23  0.  0.  0.
425  4.24  0.  0.  0.
426  4.25  0.  0.  0.
427  4.26  0.  0.  0.
428  4.27  0.  0.  0.
429  4.28  0.  0.  0.
430  4.29  0.  0.  0.
431  4.30  0.  0.  0.
432  4.31  0.  0.  0.
433  4.32  0.  0.  0.
434  4.33  0.  0.  0.
435  4.34  0.  0.  0.
436  4.35  0.  0.  0.
437  4.36  0.  0.  0.
438  4.37  0.  0.  0.
439  4.38  0.  0.  0.
440  4.39  0.  0.  0.
441  4.40  0.  0.  0.
442  4.41  0.  0.  0.
443  4.42  0.  0.  0.
444  4.43  0.  0.  0.
445  4.44  0.  0.  0.
446  4.45  0.  0.  0.
447  4.46  0.  0.  0.
448  4.47  0.  0.  0.
449  4.48  0.  0.  0.
450  4.49  0.  0.  0.
451  4.50  0.  0.  0.
452  4.51  0.  0.  0.
453  4.52  0.  0.  0.
454  4.53  0.  0.  0.
455  4.54  0.  0.  0.
456  4.55  0.  0.  0.
457  4.56  0.  0.  0.
458  4.57  0.  0.  0.
459  4.58  0.  0.  0.
460  4.59  0.  0.  0.
461  4.60  0.  0.  0.
462  4.61  0.  0.  0.
463  4.62  0.  0.  0.
464  4.63  0.  0.  0.
465  4.64  0.  0.  0.
466  4.65  0.  0.  0.
467  4.66  0.  0.  0.
468  4.67  0.  0.  0.
469  4.68  0.  0.  0.
470  4.69  0.  0.  0.
471  4.70  0.  0.  0.
472  4.71  0.  0.  0.
473  4.72  0.  0.  0.
474  4.73  0.  0.  0.
475  4.74  0.  0.  0.
476  4.75  0.  0.  0.
477  4.76  0.  0.  0.
478  4.77  0.  0.  0.
479  4.78  0.  0.  0.
480  4.79  0.  0.  0.
481  4.80  0.  0.  0.
482  4.81  0.  0.  0.
483  4.82  0.  0.  0.
484  4.83  0.  0.  0.
485  4.84  0.  0.  0.
486  4.85  0.  0.  0.
487  4.86  0.  0.  0.
488  4.87  0.  0.  0.
489  4.88  0.  0.  0.
490  4.89  0.  0.  0.
491  4.90  0.  0.  0.
492  4.91  0.  0.  0.
493  4.92  0.  0.  0.
494  4.93  0.  0.  0.
495  4.94  0.  0.  0.
496  4.95  0.  0.  0.
497  4.96  0.  0.  0.
498  4.97  0.  0.  0.
499  4.98  0.  0.  0.
500  4.99  0.  0.  0.
501  5.00  0.  0.  0.
502  5.01  0.  0.  0.
503  5.02  0.  0.  0.
504  5.03  0.  0.  0.
505  5.04  0.  0.  0.
506  5.05  0.  0.  0.
507  5.06  0.  0.  0.
508  5.07  0.  0.  0.
509  5.08  0.  0.  0.
510  5.09  0.  0.  0.
511  5.10  0.  0.  0.
512  5.11  0.  0.  0.
513  5.12  0.  0.  0.
514  5.13  0.  0.  0.
515  5.14  0.  0.  0.
516  5.15  0.  0.  0.
517  5.16  0.  0.  0.
518  5.17  0.  0.  0.
519  5.18  0.  0.  0.
520  5.19  0.  0.  0.
521  5.20  0.  0.  0.
522  5.21  0.  0.  0.
523  5.22  0.  0.  0.
524  5.23  0.  0.  0.
525  5.24  0.  0.  0.
526  5.25  0.  0.  0.
527  5.26  0.  0.  0.
528  5.27  0.  0.  0.
529  5.28  0.  0.  0.
530  5.29  0.  0.  0.
531  5.30  0.  0.  0.
532  5.31  0.  0.  0.
533  5.32  0.  0.  0.
534  5.33  0.  0.  0.
535  5.34  0.  0.  0.
536  5.35  0.  0.  0.
537  5.36  0.  0.  0.
538  5.37  0.  0.  0.
539  5.38  0.  0.  0.
540  5.39  0.  0.  0.
541  5.40  0.  0.  0.
542  5.41  0.  0.  0.
543  5.42  0.  0.  0.
544  5.43  0.  0.  0.
545  5.44  0.  0.  0.
546  5.45  0.  0.  0.
547  5.46  0.  0.  0.
548  5.47  0.  0.  0.
549  5.48  0.  0.  0.
550  5.49  0.  0.  0.
551  5.50  0.  0.  0.
552  5.51  0.  0.  0.
553  5.52  0.  0.  0.
554  5.53  0.  0.  0.
555  5.54  0.  0.  0.
556  5.55  0.  0.  0.
557  5.56  0.  0.  0.
558  5.57  0.  0.  0.
559  5.58  0.  0.  0.
560  5.59  0.  0.  0.
561  5.60  0.  0.  0.
562  5.61  0.  0.  0.
563  5.62  0.  0.  0.
564  5.63  0.  0.  0.
565  5.64  0.  0.  0.
566  5.65  0.  0.  0.
567  5.66  0.  0.  0.
568  5.67  0.  0.  0.
569  5.68  0.  0.  0.
570  5.69  0.  0.  0.
571  5.70  0.  0.  0.
572  5.71  0.  0.  0.
573  5.72  0.  0.  0.
574  5.73  0.  0.  0.
575  5.74  0.  0.  0.
576  5.75  0.  0.  0.
577  5.76  0.  0.  0.
578  5.77  0.  0.  0.
579  5.78  0.  0.  0.
580  5.79  0.  0.  0.
581  5.80  0.  0.  0.
582  5.81  0.  0.  0.
583  5.82  0.  0.  0.
584  5.83  0.  0.  0.
585  5.84  0.  0.  0.
586  5.85  0.  0.  0.
587  5.86  0.  0.  0.
588  5.87  0.  0.  0.
589  5.88  0.  0.  0.
590  5.89  0.  0.  0.
591  5.90  0.  0.  0.
592  5.91  0.  0.  0.
593  5.92  0.  0.  0.
594  5.93  0.  0.  0.
595  5.94  0.  0.  0.
596  5.95  0.  0.  0.
597  5.96  0.  0.  0.
598  5.97  0.  0.  0.
599  5.98  0.  0.  0.
600  5.99  0.  0.  0.
1                        -8.8947842999715E+00  2.1957060703737E+00 -1.4019902632677E-01
1  0.0000000000000E+00  7.1871250617583E-10  3.3528449239206E-08  2.5215256382882E-08
2  1.0000000000000E-02  2.2637104160183E-03  6.4824349738271E-03  2.3165015495754E-03
3  2.0000000000000E-02  9.0423986635363E-03  2.5835999743291E-02  9.2142257839492E-03
4  3.0000000000000E-02  2.0298806855562E-02  5.7780781730179E-02  2.0538736503034E-02
5  4.0000000000000E-02  3.5971075195603E-02  1.0185460058811E-01  3.6035642741064E-02
6  5.0000000000000E-02  5.5973095717140E-02  1.5741945299711E-01  5.5355053630666E-02
7  6.0000000000000E-02  8.0195004955781E-02  2.2367040412138E-01  7.8057717516164E-02
8  7.0000000000000E-02  1.0850381299888E-01  2.9964679681568E-01  1.0362274920432E-01
9  8.0000000000000E-02  1.4074416563871E-01  3.8424561613740E-01  1.3145682402544E-01
10  9.0000000000000E-02  1.7673923564497E-01  4.7623681560725E-01  1.6090469382622E-01
11  1.0000000000000E-01  2.1629173847277E-01  5.7428038342622E-01  1.9126085846416E-01
12  1.1000000000000E-01  2.5918506703442E-01  6.7694490192395E-01  2.2178220714776E-01
13  1.2000000000000E-01  3.0518453949085E-01  7.8272733225943E-01  2.5170142736647E-01
14  1.3000000000000E-01  3.5403875336143E-01  8.9007373914100E-01  2.8024096545480E-01
15  1.4000000000000E-01  4.0548103861368E-01  9.9740065734258E-01  3.0662731228125E-01
16  1.5000000000000E-01  4.5923100177772E-01  1.1031167932659E+00  3.3010538035215E-01
17  1.6000000000000E-01  5.1499615253797E-01  1.2056447508666E+00  3.4995273494220E-01
18  1.7000000000000E-01  5.7247360368893E-01  1.3034424719913E+00  3.6549344183242E-01
19  1.8000000000000E-01  6.3135183480696E-01  1.3950240865473E+00  3.7611129792540E-01
20  1.9000000000000E-01  6.9131250948810E-01  1.4789798778803E+00  3.8126221844072E-01
21  2.0000000000000E-01  7.5203233553911E-01  1.5539950830948E+00  3.8048556553442E-01
22  2.1000000000000E-01  8.1318495708743E-01  1.6188672666234E+00  3.7341421794236E-01
23  2.2000000000000E-01  8.7444286720230E-01  1.6725220278150E+00  3.5978319946376E-01
24  2.3000000000000E-01  9.3547932929773E-01  1.7140268293448E+00  3.3943670556188E-01
25  2.4000000000000E-01  9.9597029532492E-01  1.7426027624191E+00  3.1233339178723E-01
26  2.5000000000000E-01  1.0555963085618E+00  1.7576340966084E+00  2.7854981478901E-01
27  2.6000000000000E-01  1.1140443786781E+00  1.7586754961756E+00  2.3828194598069E-01
28  2.7000000000000E-01  1.1710098166999E+00  1.7454568204377E+00  1.9184470902270E-01
29  2.8000000000000E-01  1.2261980175264E+00  1.7178854624316E+00  1.3966952469146E-01
30  2.9000000000000E-01  1.2793261777656E+00  1.6760462173614E+00  8.2299879891150E-02
31  3.0000000000000E-01  1.3301249368658E+00  1.6201987093893E+00  2.0384970979060E-02
32  3.1000000000000E-01  1.3783399298240E+00  1.5507724416896E+00 -4.5328495360718E-02
33  3.2000000000000E-01  1.4237332401630E+00  1.4683595697495E+00 -1.1400622833138E-01
34  3.3000000000000E-01  1.4660847423777E+00  1.3737055310874E+00 -1.8473786035293E-01
35  3.4000000000000E-01  1.5051933236752E+00  1.2676976953613E+00 -2.5654986101377E-01
36  3.5000000000000E-01  1.5408779755571E+00  1.1513522267517E+00 -3.2841965726775E-01
37  3.6000000000000E-01  1.5729787466287E+00  1.0257993751047E+00 -3.9929073676119E-01
38  3.7000000000000E-01  1.6013575489562E+00  8.9226743321792E-01 -4.6808849203991E-01
39  3.8000000000000E-01  1.6258988113352E+00  7.5206561454474E-01 -5.3373654826530E-01
40  3.9000000000000E-01  1.6465099739619E+00  6.0656611822852E-01 -5.9517330628816E-01
41  4.0000000000000E-01  1.6631218202262E+00  4.5718565659692E-01 -6.5136842675881E-01
42  4.1000000000000E-01  1.6756886426366E+00  3.0536672395383E-01 -7.0133897955917E-01
43  4.2000000000000E-01  1.6841882412573E+00  1.5255888469278E-01 -7.4416498632472E-01
44  4.3000000000000E-01  1.6886217544537E+00  2.0035348831802E-04 -7.7900409217409E-01
45  4.4000000000000E-01  1.6890133232001E+00 -1.5029986925380E-01 -8.0510511588732E-01
46  4.5000000000000E-01  1.6854095916869E+00 -2.9757905717322E-01 -8.2182024548562E-01
47  4.6000000000000E-01  1.6778790484520E+00 -4.4033678091397E-01 -8.2861566818726E-01
48  4.7000000000000E-01  1.6665112137389E+00 -5.7734968314235E-01 -8.2508044968280E-01
49  4.8000000000000E-01  1.6514156802342E+00 -7.0748481846817E-01 -8.1093350714817E-01
50  4.9000000000000E-01  1.6327210157379E+00 -8.2971139767145E-01 -7.8602855288454E-01
51  5.0000000000000E-01  1.6105735376541E+00 -9.4311080429192E-01 -7.5035692036121E-01
52  5.1000000000000E-01  1.5851359704435E+00 -1.0468847818667E+00 -7.0404822112078E-01
53  5.2000000000000E-01  1.5565859983232E+00 -1.1403617213611E+00 -6.4736881881726E-01
54  5.3000000000000E-01  1.5251147265320E+00 -1.2230010100752E+00 -5.8071814490982E-01
55  5.4000000000000E-01  1.4909250653743E+00 -1.2943954349733E+00 -5.0462291851963E-01
56  5.5000000000000E-01  1.4542300520016E+00 -1.3542716644374E+00 -4.1972936997781E-01
57  5.6000000000000E-01  1.4152511254789E+00 -1.4024888623657E+00 -3.2679360295504E-01
58  5.7000000000000E-01  1.3742163711001E+00 -1.4390355168339E+00 -2.2667026310757E-01
59  5.8000000000000E-01  1.3313587501567E+00 -1.4640245917682E+00 -1.2029971128369E-01
60  5.9000000000000E-01  1.2869143314207E+00 -1.4776871338188E+00 -8.6939259328078E-03
61  6.0000000000000E-01  1.2411205404751E+00 -1.4803644875412E+00  1.0707861805308E-01
62  6.1000000000000E-01  1.1942144427120E+00 -1.4724992897741E+00  2.2590882869559E-01
63  6.2000000000000E-01  1.1464310753237E+00 -1.4546254285220E+00  3.4666335577281E-01
64  6.3000000000000E-01  1.0980018429383E+00 -1.4273571625330E+00  4.6820114216036E-01
65  6.4000000000000E-01  1.0491529907122E+00 -1.3913776050054E+00  5.8938987764187E-01
66  6.5000000000000E-01  1.0001041676912E+00 -1.3474267784170E+00  7.0912206743262E-01
67  6.6000000000000E-01  9.5106709210644E-01 -1.2962894473839E+00  8.2633043522868E-01
68  6.7000000000000E-01  9.0224432899609E-01 -1.2387829327994E+00  9.4000239333645E-01
69  6.8000000000000E-01  8.5382818915358E-01 -1.1757451034408E+00  1.0491933301506E+00
70  6.9000000000000E-01  8.0599975691665E-01 -1.1080227309608E+00  1.1530384876226E+00
71  7.0000000000000E-01  7.5892805275105E-01 -1.0364603809609E+00  1.2507632280183E+00
72  7.1000000000000E-01  7.1276933496482E-01 -9.6188999698065E-01  1.3416915197313E+00
73  7.2000000000000E-01  6.6766654323932E-01 -8.8512131606957E-01  1.4252525056707E+00
74  7.3000000000000E-01  6.2374888499978E-01 -8.0693323450874E-01  1.5009850541774E+00
75  7.4000000000000E-01  5.8113156399594E-01 -7.2806622061713E-01  1.5685402309082E+00
76  7.5000000000000E-01  5.3991564884138E-01 -6.4921584882442E-01  1.6276816699777E+00
77  7.6000000000000E-01  5.0018807769090E-01 -5.7102750574361E-01  1.6782838631550E+00
78  7.7000000000000E-01  4.6202179373780E-01 -4.9409229524932E-01  1.7203284263735E+00
79  7.8000000000000E-01  4.2547600480606E-01 -4.1894414598788E-01  1.7538984424929E+00
80  7.9000000000000E-01  3.9059655901329E-01 -3.4605810170708E-01  1.7791710174681E+00
81  8.0000000000000E-01  3.5741642730414E-01 -2.7584975268635E-01  1.7964082231390E+00
82  8.1000000000000E-01  3.2595628261380E-01 -2.0867574572288E-01  1.8059466331328E+00
83  8.2000000000000E-01  2.9622516452885E-01 -1.4483529091269E-01  1.8081856882715E+00
84  8.3000000000000E-01  2.6822121757615E-01 -8.4572566141814E-02  1.8035751538749E+00
85  8.4000000000000E-01  2.4193249069666E-01 -2.8079905018081E-02  1.7926019529940E+00
86  8.5000000000000E-01  2.1733778505331E-01  2.4498358873165E-02  1.7757766765100E+00
87  8.6000000000000E-01  1.9440753708264E-01  7.3061528860411E-02  1.7536200829097E+00
88  8.7000000000000E-01  1.7310472362616E-01  1.1754780845356E-01  1.7266499071895E+00
89  8.8000000000000E-01  1.5338577606758E-01  1.5792934132173E-01  1.6953682996340E+00
90  8.9000000000000E-01  1.3520149064883E-01  1.9420718075797E-01  1.6602502111572E+00
91  9.0000000000000E-01  1.1849792253397E-01  2.2640634123129E-01  1.6217330325610E+00
92  9.1000000000000E-01  1.0321725172524E-01  2.5457108190808E-01  1.5802077806305E+00
93  9.2000000000000E-01  8.9298609598193E-02  2.7876056689963E-01  1.5360121047202E+00
94  9.3000000000000E-01  7.6678855599335E-02  2.9904503961655E-01  1.4894253637423E+00
95  9.4000000000000E-01  6.5293294525615E-02  3.1550263918852E-01  1.4406659956652E+00
96  9.5000000000000E-01  5.5076325765014E-02  3.2821697566459E-01  1.3898913702845E+00
97  9.6000000000000E-01  4.5962016904593E-02  3.3727556789852E-01  1.3372002816889E+00
98  9.7000000000000E-01  3.7884595190520E-02  3.4276923391517E-01  1.2826382001148E+00
99  9.8000000000000E-01  3.0778851436146E-02  3.4479250843866E-01  1.2262053644409E+00
100  9.9000000000000E-01  2.4580452103665E-02  3.4344514641976E-01  1.1678677570435E+00
101  1.0000000000000E+00  1.9226156414512E-02  3.3883475513893E-01  1.1075709628553E+00
102  1.0100000000000E+00  1.4653936459004E-02  3.3108058106050E-01  1.0452568748895E+00