Db    ONCVPSP-4.0.1  r_core=   1.10309   1.20665   1.20665   1.20665
105.0000     45.0000      231012    zatom,zion,pspd
8   -1012   3     4   600     0    pspcod,pspxc,lmax,lloc,mmax,r2well
5.99000000  3.50000000  0.00000000    rchrg fchrg qchrg
3     2     2     2     0    nproj
1     1           extension_switch
0                         2.2275860515400E+01 -9.6623261521582E+00 -3.0310223368241E-01
1  0.0000000000000E+00 -2.8897487291957E-08 -2.0040097359342E-10  1.2820585670870E-07
2  1.0000000000000E-02  2.1319536302799E-01  4.6521673565057E-02 -8.7306272599594E-02
3  2.0000000000000E-02  4.2421774408510E-01  9.3073116229243E-02 -1.7274509301036E-01
4  3.0000000000000E-02  6.3092153392642E-01  1.3968312313640E-01 -2.5449524060883E-01
5  4.0000000000000E-02  8.3121545176274E-01  1.8637854907940E-01 -3.3082673633833E-01
6  5.0000000000000E-02  1.0230886746325E+00  2.3318335728800E-01 -4.0014344420801E-01
7  6.0000000000000E-02  1.2046357461578E+00  2.8011769114736E-01 -4.6102214555286E-01
8  7.0000000000000E-02  1.3740798926685E+00  3.2719697676400E-01 -5.1224706702779E-01
9  8.0000000000000E-02  1.5297944035748E+00  3.7443106449668E-01 -5.5283897151442E-01
10  9.0000000000000E-02  1.6703217677966E+00  4.2182341777904E-01 -5.8207807394026E-01
11  1.0000000000000E-01  1.7943902982637E+00  4.6937035775522E-01 -5.9952021685782E-01
12  1.1000000000000E-01  1.9009280211223E+00  5.1706037240119E-01 -6.0500592830221E-01
13  1.2000000000000E-01  1.9890736543860E+00  5.6487349888509E-01 -5.9866218134967E-01
14  1.3000000000000E-01  2.0581845513310E+00  6.1278078790098E-01 -5.8089687506903E-01
15  1.4000000000000E-01  2.1078415359249E+00  6.6074385856405E-01 -5.5238625429581E-01
16  1.5000000000000E-01  2.1378506099267E+00  7.0871455215799E-01 -5.1405567507242E-01
17  1.6000000000000E-01  2.1482415629698E+00  7.5663469255390E-01 -4.6705429821488E-01
18  1.7000000000000E-01  2.1392635669136E+00  8.0443596046022E-01 -4.1272445027364E-01
19  1.8000000000000E-01  2.1113778831021E+00  8.5203988780274E-01 -3.5256652479407E-01
20  1.9000000000000E-01  2.0652478550019E+00  8.9935797746902E-01 -2.8820040361167E-01
21  2.0000000000000E-01  2.0017263982704E+00  9.4629195238532E-01 -2.2132445520723E-01
22  2.1000000000000E-01  1.9218412349561E+00  9.9273413643629E-01 -1.5367321306904E-01
23  2.2000000000000E-01  1.8267781477416E+00  1.0385679681052E+00 -8.6974850753371E-02
24  2.3000000000000E-01  1.7178625535225E+00  1.0836686459308E+00 -2.2909552072770E-02
25  2.4000000000000E-01  1.5965397129148E+00  1.1279039029745E+00  3.6930174264270E-02
26  2.5000000000000E-01  1.4643539034042E+00  1.1711349055088E+00  9.1076264085971E-02
27  2.6000000000000E-01  1.3229268888228E+00  1.2132172691134E+00  1.3821808343841E-01
28  2.7000000000000E-01  1.1739360168264E+00  1.2540021833426E+00  1.7723088844687E-01
29  2.8000000000000E-01  1.0190922693442E+00  1.2933376341630E+00  2.0719916083945E-01
30  2.9000000000000E-01  8.6011857897251E-01  1.3310697114889E+00  2.2743437719135E-01
31  3.0000000000000E-01  6.9872870748930E-01  1.3670439874263E+00  2.3748693444802E-01
32  3.1000000000000E-01  5.3660696164476E-01  1.4011069493082E+00  2.3715212152234E-01
33  3.2000000000000E-01  3.7538899676678E-01  1.4331074703190E+00  2.2647019151113E-01
34  3.3000000000000E-01  2.1664393118969E-01  1.4628982994894E+00  2.0572074639876E-01
35  3.4000000000000E-01  6.1857964760057E-02  1.4903375521360E+00  1.7541179136414E-01
36  3.5000000000000E-01 -8.7580336601767E-02  1.5152901814415E+00  1.3626394490147E-01
37  3.6000000000000E-01 -2.3039296041878E-01  1.5376294118388E+00  8.9190400402121E-02
38  3.7000000000000E-01 -3.6542347368423E-01  1.5572381151814E+00  3.5273321914125E-02
39  3.8000000000000E-01 -4.9164608970334E-01  1.5740101113558E+00 -2.4262580449810E-02
40  3.9000000000000E-01 -6.0817274095762E-01  1.5878513760003E+00 -8.8078512587822E-02
41  4.0000000000000E-01 -7.1425815264886E-01  1.5986811393299E+00 -1.5475130127848E-01
42  4.1000000000000E-01 -8.0930293917421E-01  1.6064328616848E+00 -2.2280356018718E-01
43  4.2000000000000E-01 -8.9285477119468E-01  1.6110550733042E+00 -2.9073357177964E-01
44  4.3000000000000E-01 -9.6460768394536E-01  1.6125120679154E+00 -3.5704419745087E-01
45  4.4000000000000E-01 -1.0243996178338E+00  1.6107844419848E+00 -4.2027020391535E-01
46  4.5000000000000E-01 -1.0722083000941E+00  1.6058694738492E+00 -4.7900348440074E-01
47  4.6000000000000E-01 -1.1081455912952E+00  1.5977813393703E+00 -5.3191575455711E-01
48  4.7000000000000E-01 -1.1324504328879E+00  1.5865511631879E+00 -5.7777841111564E-01
49  4.8000000000000E-01 -1.1454805418150E+00  1.5722269070239E+00 -6.1547935198238E-01
50  4.9000000000000E-01 -1.1477030056463E+00  1.5548730987670E+00 -6.4403666542724E-01
51  5.0000000000000E-01 -1.1396839369132E+00  1.5345704081881E+00 -6.6260919934923E-01
52  5.1000000000000E-01 -1.1220773484868E+00  1.5114150770660E+00 -6.7050411563276E-01
53  5.2000000000000E-01 -1.0956134131911E+00  1.4855182132017E+00 -6.6718161616586E-01
54  5.3000000000000E-01 -1.0610862705526E+00  1.4570049592362E+00 -6.5225709361370E-01
55  5.4000000000000E-01 -1.0193415418594E+00  1.4260135483486E+00 -6.2550100959488E-01
56  5.5000000000000E-01 -9.7126371170284E-01  1.3926942597790E+00 -5.8683683435132E-01
57  5.6000000000000E-01 -9.1776353005535E-01  1.3572082877008E+00 -5.3633739491292E-01
58  5.7000000000000E-01 -8.5976558380423E-01  1.3197265372559E+00 -4.7421997353819E-01
59  5.8000000000000E-01 -7.9819618061171E-01  1.2804283615941E+00 -4.0084047600536E-01
60  5.9000000000000E-01 -7.3397168104850E-01  1.2395002535306E+00 -3.1668695197080E-01
61  6.0000000000000E-01 -6.6798740718070E-01  1.1971345050008E+00 -2.2237269960804E-01
62  6.1000000000000E-01 -6.0110724717441E-01  1.1535278468685E+00 -1.1862912708274E-01
63  6.2000000000000E-01 -5.3415406599691E-01  1.1088800808894E+00 -6.2984775274980E-03
64  6.3000000000000E-01 -4.6790102190161E-01  1.0633927147722E+00  1.1367354425618E-01
65  6.4000000000000E-01 -4.0306387704770E-01  1.0172676103714E+00  2.4024527233827E-01
66  6.5000000000000E-01 -3.4029437828782E-01  9.7070565412522E-01  3.7228679860437E-01
67  6.6000000000000E-01 -2.8017477083554E-01  9.2390545796117E-01  5.0858805489008E-01
68  6.7000000000000E-01 -2.2321349320128E-01  8.7706209806790E-01  6.4786744495226E-01
69  6.8000000000000E-01 -1.6984208648883E-01  8.3036589820373E-01  7.8878124028560E-01
70  6.9000000000000E-01 -1.2041333494728E-01  7.8400126360815E-01  9.2993396455221E-01
71  7.0000000000000E-01 -7.5200637687550E-02  7.3814557111403E-01  1.0698899841715E+00
72  7.1000000000000E-01 -3.4398593861926E-02  6.9296812073821E-01  1.2071864968006E+00
73  7.2000000000000E-01  1.8752344187860E-03  6.4862915385178E-01  1.3403480652850E+00
74  7.3000000000000E-01  3.3577435326287E-02  6.0527894299181E-01  1.4679027832881E+00
75  7.4000000000000E-01  6.0734808620330E-02  5.6305695845289E-01  1.5884000821452E+00
76  7.5000000000000E-01  8.3439464417856E-02  5.2209111696417E-01  1.7004300993189E+00
77  7.6000000000000E-01  1.0184306541381E-01  4.8249711798134E-01  1.8026444305989E+00
78  7.7000000000000E-01  1.1615033381396E-01  4.4437787336266E-01  1.8937779849841E+00
79  7.8000000000000E-01  1.2661195776837E-01  4.0782303641146E-01  1.9726715575414E+00
80  7.9000000000000E-01  1.3351704345309E-01  3.7290863640474E-01  2.0382946363292E+00
81  8.0000000000000E-01  1.3718526772743E-01  3.3969682474414E-01  2.0897678696822E+00
82  8.1000000000000E-01  1.3795889211398E-01  3.0823573871261E-01  2.1263845447266E+00
83  8.2000000000000E-01  1.3619480137607E-01  2.7855948845685E-01  2.1476303716153E+00
84  8.3000000000000E-01  1.3225672892799E-01  2.5068827220242E-01  2.1532008349210E+00
85  8.4000000000000E-01  1.2650782651413E-01  2.2462862381697E-01  2.1430153675002E+00
86  8.5000000000000E-01  1.1930372692024E-01  2.0037379564417E-01  2.1172276258409E+00
87  8.6000000000000E-01  1.1098623592750E-01  1.7790427802680E-01  2.0762312013124E+00
88  8.7000000000000E-01  1.0187777337918E-01  1.5718845512223E-01  2.0206601897593E+00
89  8.8000000000000E-01  9.2276663306998E-02  1.3818339449982E-01  1.9513841622578E+00
90  8.9000000000000E-01  8.2453349875293E-02  1.2083576562332E-01  1.8694972311725E+00
91  9.0000000000000E-01  7.2647589869918E-02  1.0508287969945E-01  1.7763010853255E+00
92  9.1000000000000E-01  6.3066644110134E-02  9.0853840567474E-02  1.6732820723940E+00
93  9.2000000000000E-01  5.3884460111941E-02  7.8070793372177E-02  1.5620826308224E+00
94  9.3000000000000E-01  4.5241807278538E-02  6.6650254777070E-02  1.4444676118028E+00
95  9.4000000000000E-01  3.7247294579237E-02  5.6504505510576E-02  1.3222862778884E+00
96  9.5000000000000E-01  2.9979169911386E-02  4.7543023180235E-02  1.1974310113206E+00
97  9.6000000000000E-01  2.3487770916643E-02  3.9673930623109E-02  1.0717940048989E+00
98  9.7000000000000E-01  1.7798469753060E-02  3.2805432670336E-02  9.4722343356877E-01
99  9.8000000000000E-01  1.2914929983966E-02  2.6847212173363E-02  8.2548080840441E-01
100  9.9000000000000E-01  8.8224730319861E-03  2.1711754544590E-02  7.0820138942237E-01
101  1.0000000000000E+00  5.4913352184640E-03  1.7315568975961E-02  5.9685967308728E-01
102  1.0100000000000E+00  2.8795847834051E-03  1.3580273971982E-02  4.9274206905277E-01
103  1.0200000000000E+00  9.3546186826061E-04  1.0433514911696E-02  3.9692893419165E-01
104  1.0300000000000E+00 -4.0108641854064E-04  7.8096858813174E-03  3.1028806308435E-01
105  1.0400000000000E+00 -1.1979762809402E-03  5.6503954870250E-03  2.3348227277499E-01
106  1.0500000000000E+00 -1.5337246894929E-03  3.9040167861207E-03  1.6700640429563E-01
107  1.0600000000000E+00 -1.5249800710298E-03  2.5141084066644E-03  1.1141993646377E-01
108  1.0700000000000E+00 -1.2496343300545E-03  1.4489397439430E-03  6.6812795405760E-02
109  1.0800000000000E+00 -8.0252021894869E-04  6.8914707193759E-04  3.3229277012082E-02
110  1.0900000000000E+00 -3.2821580727328E-04  2.1614968219077E-04  1.0962413788451E-02
111  1.1000000000000E+00 -2.7690676053233E-05  1.4240378915753E-05  7.6552195405519E-04
112  1.1100000000000E+00 -2.8159566567887E-07  1.4326026581020E-07  7.7412817012861E-06
113  1.1200000000000E+00  2.4745311901086E-07 -1.3798745132959E-07 -7.2857430901011E-06
114  1.13  0.  0.  0.
115  1.14  0.  0.  0.
116  1.15  0.  0.  0.
117  1.16  0.  0.  0.
118  1.17  0.  0.  0.
119  1.18  0.  0.  0.
120  1.19  0.  0.  0.
121  1.20  0.  0.  0.
122  1.21  0.  0.  0.
123  1.22  0.  0.  0.
124  1.23  0.  0.  0.
125  1.24  0.  0.  0.
126  1.25  0.  0.  0.
127  1.26  0.  0.  0.
128  1.27  0.  0.  0.
129  1.28  0.  0.  0.
130  1.29  0.  0.  0.
131  1.30  0.  0.  0.
132  1.31  0.  0.  0.
133  1.32  0.  0.  0.
134  1.33  0.  0.  0.
135  1.34  0.  0.  0.
136  1.35  0.  0.  0.
137  1.36  0.  0.  0.
138  1.37  0.  0.  0.
139  1.38  0.  0.  0.
140  1.39  0.  0.  0.
141  1.40  0.  0.  0.
142  1.41  0.  0.  0.
143  1.42  0.  0.  0.
144  1.43  0.  0.  0.
145  1.44  0.  0.  0.
146  1.45  0.  0.  0.
147  1.46  0.  0.  0.
148  1.47  0.  0.  0.
149  1.48  0.  0.  0.
150  1.49  0.  0.  0.
151  1.50  0.  0.  0.
152  1.51  0.  0.  0.
153  1.52  0.  0.  0.
154  1.53  0.  0.  0.
155  1.54  0.  0.  0.
156  1.55  0.  0.  0.
157  1.56  0.  0.  0.
158  1.57  0.  0.  0.
159  1.58  0.  0.  0.
160  1.59  0.  0.  0.
161  1.60  0.  0.  0.
162  1.61  0.  0.  0.
163  1.62  0.  0.  0.
164  1.63  0.  0.  0.
165  1.64  0.  0.  0.
166  1.65  0.  0.  0.
167  1.66  0.  0.  0.
168  1.67  0.  0.  0.
169  1.68  0.  0.  0.
170  1.69  0.  0.  0.
171  1.70  0.  0.  0.
172  1.71  0.  0.  0.
173  1.72  0.  0.  0.
174  1.73  0.  0.  0.
175  1.74  0.  0.  0.
176  1.75  0.  0.  0.
177  1.76  0.  0.  0.
178  1.77  0.  0.  0.
179  1.78  0.  0.  0.
180  1.79  0.  0.  0.
181  1.80  0.  0.  0.
182  1.81  0.  0.  0.
183  1.82  0.  0.  0.
184  1.83  0.  0.  0.
185  1.84  0.  0.  0.
186  1.85  0.  0.  0.
187  1.86  0.  0.  0.
188  1.87  0.  0.  0.
189  1.88  0.  0.  0.
190  1.89  0.  0.  0.
191  1.90  0.  0.  0.
192  1.91  0.  0.  0.
193  1.92  0.  0.  0.
194  1.93  0.  0.  0.
195  1.94  0.  0.  0.
196  1.95  0.  0.  0.
197  1.96  0.  0.  0.
198  1.97  0.  0.  0.
199  1.98  0.  0.  0.
200  1.99  0.  0.  0.
201  2.00  0.  0.  0.
202  2.01  0.  0.  0.
203  2.02  0.  0.  0.
204  2.03  0.  0.  0.
205  2.04  0.  0.  0.
206  2.05  0.  0.  0.
207  2.06  0.  0.  0.
208  2.07  0.  0.  0.
209  2.08  0.  0.  0.
210  2.09  0.  0.  0.
211  2.10  0.  0.  0.
212  2.11  0.  0.  0.
213  2.12  0.  0.  0.
214  2.13  0.  0.  0.
215  2.14  0.  0.  0.
216  2.15  0.  0.  0.
217  2.16  0.  0.  0.
218  2.17  0.  0.  0.
219  2.18  0.  0.  0.
220  2.19  0.  0.  0.
221  2.20  0.  0.  0.
222  2.21  0.  0.  0.
223  2.22  0.  0.  0.
224  2.23  0.  0.  0.
225  2.24  0.  0.  0.
226  2.25  0.  0.  0.
227  2.26  0.  0.  0.
228  2.27  0.  0.  0.
229  2.28  0.  0.  0.
230  2.29  0.  0.  0.
231  2.30  0.  0.  0.
232  2.31  0.  0.  0.
233  2.32  0.  0.  0.
234  2.33  0.  0.  0.
235  2.34  0.  0.  0.
236  2.35  0.  0.  0.
237  2.36  0.  0.  0.
238  2.37  0.  0.  0.
239  2.38  0.  0.  0.
240  2.39  0.  0.  0.
241  2.40  0.  0.  0.
242  2.41  0.  0.  0.
243  2.42  0.  0.  0.
244  2.43  0.  0.  0.
245  2.44  0.  0.  0.
246  2.45  0.  0.  0.
247  2.46  0.  0.  0.
248  2.47  0.  0.  0.
249  2.48  0.  0.  0.
250  2.49  0.  0.  0.
251  2.50  0.  0.  0.
252  2.51  0.  0.  0.
253  2.52  0.  0.  0.
254  2.53  0.  0.  0.
255  2.54  0.  0.  0.
256  2.55  0.  0.  0.
257  2.56  0.  0.  0.
258  2.57  0.  0.  0.
259  2.58  0.  0.  0.
260  2.59  0.  0.  0.
261  2.60  0.  0.  0.
262  2.61  0.  0.  0.
263  2.62  0.  0.  0.
264  2.63  0.  0.  0.
265  2.64  0.  0.  0.
266  2.65  0.  0.  0.
267  2.66  0.  0.  0.
268  2.67  0.  0.  0.
269  2.68  0.  0.  0.
270  2.69  0.  0.  0.
271  2.70  0.  0.  0.
272  2.71  0.  0.  0.
273  2.72  0.  0.  0.
274  2.73  0.  0.  0.
275  2.74  0.  0.  0.
276  2.75  0.  0.  0.
277  2.76  0.  0.  0.
278  2.77  0.  0.  0.
279  2.78  0.  0.  0.
280  2.79  0.  0.  0.
281  2.80  0.  0.  0.
282  2.81  0.  0.  0.
283  2.82  0.  0.  0.
284  2.83  0.  0.  0.
285  2.84  0.  0.  0.
286  2.85  0.  0.  0.
287  2.86  0.  0.  0.
288  2.87  0.  0.  0.
289  2.88  0.  0.  0.
290  2.89  0.  0.  0.
291  2.90  0.  0.  0.
292  2.91  0.  0.  0.
293  2.92  0.  0.  0.
294  2.93  0.  0.  0.
295  2.94  0.  0.  0.
296  2.95  0.  0.  0.
297  2.96  0.  0.  0.
298  2.97  0.  0.  0.
299  2.98  0.  0.  0.
300  2.99  0.  0.  0.
301  3.00  0.  0.  0.
302  3.01  0.  0.  0.
303  3.02  0.  0.  0.
304  3.03  0.  0.  0.
305  3.04  0.  0.  0.
306  3.05  0.  0.  0.
307  3.06  0.  0.  0.
308  3.07  0.  0.  0.
309  3.08  0.  0.  0.
310  3.09  0.  0.  0.
311  3.10  0.  0.  0.
312  3.11  0.  0.  0.
313  3.12  0.  0.  0.
314  3.13  0.  0.  0.
315  3.14  0.  0.  0.
316  3.15  0.  0.  0.
317  3.16  0.  0.  0.
318  3.17  0.  0.  0.
319  3.18  0.  0.  0.
320  3.19  0.  0.  0.
321  3.20  0.  0.  0.
322  3.21  0.  0.  0.
323  3.22  0.  0.  0.
324  3.23  0.  0.  0.
325  3.24  0.  0.  0.
326  3.25  0.  0.  0.
327  3.26  0.  0.  0.
328  3.27  0.  0.  0.
329  3.28  0.  0.  0.
330  3.29  0.  0.  0.
331  3.30  0.  0.  0.
332  3.31  0.  0.  0.
333  3.32  0.  0.  0.
334  3.33  0.  0.  0.
335  3.34  0.  0.  0.
336  3.35  0.  0.  0.
337  3.36  0.  0.  0.
338  3.37  0.  0.  0.
339  3.38  0.  0.  0.
340  3.39  0.  0.  0.
341  3.40  0.  0.  0.
342  3.41  0.  0.  0.
343  3.42  0.  0.  0.
344  3.43  0.  0.  0.
345  3.44  0.  0.  0.
346  3.45  0.  0.  0.
347  3.46  0.  0.  0.
348  3.47  0.  0.  0.
349  3.48  0.  0.  0.
350  3.49  0.  0.  0.
351  3.50  0.  0.  0.
352  3.51  0.  0.  0.
353  3.52  0.  0.  0.
354  3.53  0.  0.  0.
355  3.54  0.  0.  0.
356  3.55  0.  0.  0.
357  3.56  0.  0.  0.
358  3.57  0.  0.  0.
359  3.58  0.  0.  0.
360  3.59  0.  0.  0.
361  3.60  0.  0.  0.
362  3.61  0.  0.  0.
363  3.62  0.  0.  0.
364  3.63  0.  0.  0.
365  3.64  0.  0.  0.
366  3.65  0.  0.  0.
367  3.66  0.  0.  0.
368  3.67  0.  0.  0.
369  3.68  0.  0.  0.
370  3.69  0.  0.  0.
371  3.70  0.  0.  0.
372  3.71  0.  0.  0.
373  3.72  0.  0.  0.
374  3.73  0.  0.  0.
375  3.74  0.  0.  0.
376  3.75  0.  0.  0.
377  3.76  0.  0.  0.
378  3.77  0.  0.  0.
379  3.78  0.  0.  0.
380  3.79  0.  0.  0.
381  3.80  0.  0.  0.
382  3.81  0.  0.  0.
383  3.82  0.  0.  0.
384  3.83  0.  0.  0.
385  3.84  0.  0.  0.
386  3.85  0.  0.  0.
387  3.86  0.  0.  0.
388  3.87  0.  0.  0.
389  3.88  0.  0.  0.
390  3.89  0.  0.  0.
391  3.90  0.  0.  0.
392  3.91  0.  0.  0.
393  3.92  0.  0.  0.
394  3.93  0.  0.  0.
395  3.94  0.  0.  0.
396  3.95  0.  0.  0.
397  3.96  0.  0.  0.
398  3.97  0.  0.  0.
399  3.98  0.  0.  0.
400  3.99  0.  0.  0.
401  4.00  0.  0.  0.
402  4.01  0.  0.  0.
403  4.02  0.  0.  0.
404  4.03  0.  0.  0.
405  4.04  0.  0.  0.
406  4.05  0.  0.  0.
407  4.06  0.  0.  0.
408  4.07  0.  0.  0.
409  4.08  0.  0.  0.
410  4.09  0.  0.  0.
411  4.10  0.  0.  0.
412  4.11  0.  0.  0.
413  4.12  0.  0.  0.
414  4.13  0.  0.  0.
415  4.14  0.  0.  0.
416  4.15  0.  0.  0.
417  4.16  0.  0.  0.
418  4.17  0.  0.  0.
419  4.18  0.  0.  0.
420  4.19  0.  0.  0.
421  4.20  0.  0.  0.
422  4.21  0.  0.  0.
423  4.22  0.  0.  0.
424  4.23  0.  0.  0.
425  4.24  0.  0.  0.
426  4.25  0.  0.  0.
427  4.26  0.  0.  0.
428  4.27  0.  0.  0.
429  4.28  0.  0.  0.
430  4.29  0.  0.  0.
431  4.30  0.  0.  0.
432  4.31  0.  0.  0.
433  4.32  0.  0.  0.
434  4.33  0.  0.  0.
435  4.34  0.  0.  0.
436  4.35  0.  0.  0.
437  4.36  0.  0.  0.
438  4.37  0.  0.  0.
439  4.38  0.  0.  0.
440  4.39  0.  0.  0.
441  4.40  0.  0.  0.
442  4.41  0.  0.  0.
443  4.42  0.  0.  0.
444  4.43  0.  0.  0.
445  4.44  0.  0.  0.
446  4.45  0.  0.  0.
447  4.46  0.  0.  0.
448  4.47  0.  0.  0.
449  4.48  0.  0.  0.
450  4.49  0.  0.  0.
451  4.50  0.  0.  0.
452  4.51  0.  0.  0.
453  4.52  0.  0.  0.
454  4.53  0.  0.  0.
455  4.54  0.  0.  0.
456  4.55  0.  0.  0.
457  4.56  0.  0.  0.
458  4.57  0.  0.  0.
459  4.58  0.  0.  0.
460  4.59  0.  0.  0.
461  4.60  0.  0.  0.
462  4.61  0.  0.  0.
463  4.62  0.  0.  0.
464  4.63  0.  0.  0.
465  4.64  0.  0.  0.
466  4.65  0.  0.  0.
467  4.66  0.  0.  0.
468  4.67  0.  0.  0.
469  4.68  0.  0.  0.
470  4.69  0.  0.  0.
471  4.70  0.  0.  0.
472  4.71  0.  0.  0.
473  4.72  0.  0.  0.
474  4.73  0.  0.  0.
475  4.74  0.  0.  0.
476  4.75  0.  0.  0.
477  4.76  0.  0.  0.
478  4.77  0.  0.  0.
479  4.78  0.  0.  0.
480  4.79  0.  0.  0.
481  4.80  0.  0.  0.
482  4.81  0.  0.  0.
483  4.82  0.  0.  0.
484  4.83  0.  0.  0.
485  4.84  0.  0.  0.
486  4.85  0.  0.  0.
487  4.86  0.  0.  0.
488  4.87  0.  0.  0.
489  4.88  0.  0.  0.
490  4.89  0.  0.  0.
491  4.90  0.  0.  0.
492  4.91  0.  0.  0.
493  4.92  0.  0.  0.
494  4.93  0.  0.  0.
495  4.94  0.  0.  0.
496  4.95  0.  0.  0.
497  4.96  0.  0.  0.
498  4.97  0.  0.  0.
499  4.98  0.  0.  0.
500  4.99  0.  0.  0.
501  5.00  0.  0.  0.
502  5.01  0.  0.  0.
503  5.02  0.  0.  0.
504  5.03  0.  0.  0.
505  5.04  0.  0.  0.
506  5.05  0.  0.  0.
507  5.06  0.  0.  0.
508  5.07  0.  0.  0.
509  5.08  0.  0.  0.
510  5.09  0.  0.  0.
511  5.10  0.  0.  0.
512  5.11  0.  0.  0.
513  5.12  0.  0.  0.
514  5.13  0.  0.  0.
515  5.14  0.  0.  0.
516  5.15  0.  0.  0.
517  5.16  0.  0.  0.
518  5.17  0.  0.  0.
519  5.18  0.  0.  0.
520  5.19  0.  0.  0.
521  5.20  0.  0.  0.
522  5.21  0.  0.  0.
523  5.22  0.  0.  0.
524  5.23  0.  0.  0.
525  5.24  0.  0.  0.
526  5.25  0.  0.  0.
527  5.26  0.  0.  0.
528  5.27  0.  0.  0.
529  5.28  0.  0.  0.
530  5.29  0.  0.  0.
531  5.30  0.  0.  0.
532  5.31  0.  0.  0.
533  5.32  0.  0.  0.
534  5.33  0.  0.  0.
535  5.34  0.  0.  0.
536  5.35  0.  0.  0.
537  5.36  0.  0.  0.
538  5.37  0.  0.  0.
539  5.38  0.  0.  0.
540  5.39  0.  0.  0.
541  5.40  0.  0.  0.
542  5.41  0.  0.  0.
543  5.42  0.  0.  0.
544  5.43  0.  0.  0.
545  5.44  0.  0.  0.
546  5.45  0.  0.  0.
547  5.46  0.  0.  0.
548  5.47  0.  0.  0.
549  5.48  0.  0.  0.
550  5.49  0.  0.  0.
551  5.50  0.  0.  0.
552  5.51  0.  0.  0.
553  5.52  0.  0.  0.
554  5.53  0.  0.  0.
555  5.54  0.  0.  0.
556  5.55  0.  0.  0.
557  5.56  0.  0.  0.
558  5.57  0.  0.  0.
559  5.58  0.  0.  0.
560  5.59  0.  0.  0.
561  5.60  0.  0.  0.
562  5.61  0.  0.  0.
563  5.62  0.  0.  0.
564  5.63  0.  0.  0.
565  5.64  0.  0.  0.
566  5.65  0.  0.  0.
567  5.66  0.  0.  0.
568  5.67  0.  0.  0.
569  5.68  0.  0.  0.
570  5.69  0.  0.  0.
571  5.70  0.  0.  0.
572  5.71  0.  0.  0.
573  5.72  0.  0.  0.
574  5.73  0.  0.  0.
575  5.74  0.  0.  0.
576  5.75  0.  0.  0.
577  5.76  0.  0.  0.
578  5.77  0.  0.  0.
579  5.78  0.  0.  0.
580  5.79  0.  0.  0.
581  5.80  0.  0.  0.
582  5.81  0.  0.  0.
583  5.82  0.  0.  0.
584  5.83  0.  0.  0.
585  5.84  0.  0.  0.
586  5.85  0.  0.  0.
587  5.86  0.  0.  0.
588  5.87  0.  0.  0.
589  5.88  0.  0.  0.
590  5.89  0.  0.  0.
591  5.90  0.  0.  0.
592  5.91  0.  0.  0.
593  5.92  0.  0.  0.
594  5.93  0.  0.  0.
595  5.94  0.  0.  0.
596  5.95  0.  0.  0.
597  5.96  0.  0.  0.
598  5.97  0.  0.  0.
599  5.98  0.  0.  0.
600  5.99  0.  0.  0.
1                        -8.6055673195077E+00 -3.6318161232531E+00
1  0.0000000000000E+00  5.6480640442391E-09 -3.6767187627795E-08
2  1.0000000000000E-02  3.1132184547901E-03 -6.3982262252403E-03
3  2.0000000000000E-02  1.2427395461907E-02 -2.5494669730055E-02
4  3.0000000000000E-02  2.7866355822799E-02 -5.6996039170274E-02
5  4.0000000000000E-02  4.9304003959224E-02 -1.0041820871613E-01
6  5.0000000000000E-02  7.6565607531638E-02 -1.5509318511376E-01
7  6.0000000000000E-02  1.0942957263595E-01 -2.2017871757352E-01
8  7.0000000000000E-02  1.4762968906297E-01 -2.9467040906267E-01
9  8.0000000000000E-02  1.9085781845677E-01 -3.7741615081311E-01
10  9.0000000000000E-02  2.3876699292516E-01 -4.6713266774428E-01
11  1.0000000000000E-01  2.9097488680828E-01 -5.6242393156316E-01
12  1.1000000000000E-01  3.4706761996467E-01 -6.6180117100249E-01
13  1.2000000000000E-01  4.0660384714614E-01 -7.6370418540977E-01
14  1.3000000000000E-01  4.6911908485329E-01 -8.6652364906090E-01
15  1.4000000000000E-01  5.3413022453385E-01 -9.6862407943166E-01
16  1.5000000000000E-01  6.0114017913993E-01 -1.0683671334414E+00
17  1.6000000000000E-01  6.6964260891831E-01 -1.1641348915334E+00
18  1.7000000000000E-01  7.3912667188571E-01 -1.2543527904447E+00
19  1.8000000000000E-01  8.0908174473830E-01 -1.3375118716409E+00
20  1.9000000000000E-01  8.7900206095636E-01 -1.4121900235558E+00
21  2.0000000000000E-01  9.4839121457082E-01 -1.4770719118231E+00
22  2.1000000000000E-01  1.0167664804316E+00 -1.5309673123666E+00
23  2.2000000000000E-01  1.0836629048204E+00 -1.5728275872157E+00
24  2.3000000000000E-01  1.1486371238344E+00 -1.6017600718410E+00
25  2.4000000000000E-01  1.2112708710808E+00 -1.6170401752128E+00
26  2.5000000000000E-01  1.2711741407943E+00 -1.6181210291610E+00
27  2.6000000000000E-01  1.3279879774638E+00 -1.6046405613968E+00
28  2.7000000000000E-01  1.3813868683392E+00 -1.5764259061465E+00
29  2.8000000000000E-01  1.4310807207182E+00 -1.5334951071100E+00
30  2.9000000000000E-01  1.4768164115995E+00 -1.4760561087392E+00
31  3.0000000000000E-01  1.5183789030394E+00 -1.4045030729680E+00
32  3.1000000000000E-01  1.5555919222953E+00 -1.3194100988569E+00
33  3.2000000000000E-01  1.5883182114801E+00 -1.2215224614869E+00
34  3.3000000000000E-01  1.6164593569182E+00 -1.1117455232278E+00
35  3.4000000000000E-01  1.6399552135968E+00 -9.9113150462169E-01
36  3.5000000000000E-01  1.6587829449812E+00 -8.6086433301913E-01
37  3.6000000000000E-01  1.6729557029373E+00 -7.2224281429240E-01
38  3.7000000000000E-01  1.6825209765194E+00 -5.7666239600712E-01
39  3.8000000000000E-01  1.6875586418847E+00 -4.2559580899749E-01
40  3.9000000000000E-01  1.6881787485455E+00 -2.7057288809598E-01
41  4.0000000000000E-01  1.6845190795305E+00 -1.1315988161524E-01
42  4.1000000000000E-01  1.6767425247753E+00  4.5061437032937E-02
43  4.2000000000000E-01  1.6650343081889E+00  2.0251454349076E-01
44  4.3000000000000E-01  1.6495991093359E+00  3.5764851659321E-01
45  4.4000000000000E-01  1.6306581205537E+00  5.0895767786694E-01
46  4.5000000000000E-01  1.6084460795983E+00  6.5500023753953E-01
47  4.6000000000000E-01  1.5832083166081E+00  7.9441568828811E-01
48  4.7000000000000E-01  1.5551978523395E+00  9.2594071194834E-01
49  4.8000000000000E-01  1.5246725822876E+00  1.0484233918560E+00
50  4.9000000000000E-01  1.4918925785320E+00  1.1608355539036E+00
51  5.0000000000000E-01  1.4571175379780E+00  1.2622830922032E+00
52  5.1000000000000E-01  1.4206044021807E+00  1.3520141698750E+00
53  5.2000000000000E-01  1.3826051701919E+00  1.4294252213095E+00
54  5.3000000000000E-01  1.3433649219413E+00  1.4940647186644E+00
55  5.4000000000000E-01  1.3031200656142E+00  1.5456347017227E+00
56  5.5000000000000E-01  1.2620968183961E+00  1.5839901059421E+00
57  5.6000000000000E-01  1.2205099258837E+00  1.6091359579768E+00
58  5.7000000000000E-01  1.1785616214830E+00  1.6212225405801E+00
59  5.8000000000000E-01  1.1364408232923E+00  1.6205386590806E+00
60  5.9000000000000E-01  1.0943225623561E+00  1.6075031690848E+00
61  6.0000000000000E-01  1.0523676328357E+00  1.5826549492879E+00
62  6.1000000000000E-01  1.0107224516126E+00  1.5466415238940E+00
63  6.2000000000000E-01  9.6951911217454E-01  1.5002065558965E+00
64  6.3000000000000E-01  9.2887561534913E-01  1.4441764451015E+00
65  6.4000000000000E-01  8.8889625759017E-01  1.3794462731779E+00
66  6.5000000000000E-01  8.4967215608619E-01  1.3069653420911E+00
67  6.6000000000000E-01  8.1128188897529E-01  1.2277225520556E+00
68  6.7000000000000E-01  7.7379222840510E-01  1.1427318606860E+00
69  6.8000000000000E-01  7.3725894407190E-01  1.0530180564969E+00
70  6.9000000000000E-01  7.0172765519131E-01  9.5960306751625E-01
71  7.0000000000000E-01  6.6723470957621E-01  8.6349300981188E-01
72  7.1000000000000E-01  6.3380806959569E-01  7.6566616152503E-01
73  7.2000000000000E-01  6.0146818623119E-01  6.6706202593897E-01
74  7.3000000000000E-01  5.7022884419177E-01  5.6857162262046E-01
75  7.4000000000000E-01  5.4009796305911E-01  4.7102911920618E-01
76  7.5000000000000E-01  5.1107834165612E-01  3.7520488846362E-01
77  7.6000000000000E-01  4.8316833522403E-01  2.8180004633166E-01
78  7.7000000000000E-01  4.5636245749967E-01  1.9144249725477E-01
79  7.8000000000000E-01  4.3065190235713E-01  1.0468448377837E-01
80  7.9000000000000E-01  4.0602498226472E-01  2.2001608570352E-02
81  8.0000000000000E-01  3.8246748335935E-01 -5.6206730738092E-02
82  8.1000000000000E-01  3.5996293940835E-01 -1.2961557978496E-01
83  8.2000000000000E-01  3.3849282926840E-01 -1.9797144904770E-01
84  8.3000000000000E-01  3.1803670462012E-01 -2.6108825109040E-01
85  8.4000000000000E-01  2.9857225671921E-01 -3.1884230526272E-01
86  8.5000000000000E-01  2.8007533262626E-01 -3.7116657813604E-01
87  8.6000000000000E-01  2.6251991283133E-01 -4.1804434131128E-01
88  8.7000000000000E-01  2.4587806335425E-01 -4.5950243824901E-01
89  8.8000000000000E-01  2.3011987626047E-01 -4.9560435833760E-01
90  8.9000000000000E-01  2.1521341307676E-01 -5.2644331947900E-01
91  9.0000000000000E-01  2.0112466581676E-01 -5.5213556004471E-01
92  9.1000000000000E-01  1.8781755023528E-01 -5.7281403720180E-01
93  9.2000000000000E-01  1.7525394553285E-01 -5.8862272146611E-01
94  9.3000000000000E-01  1.6339379403929E-01 -5.9971166708615E-01
95  9.4000000000000E-01  1.5219527343991E-01 -6.0623302473367E-01
96  9.5000000000000E-01  1.4161505289182E-01 -6.0833814726068E-01
97  9.6000000000000E-01  1.3160864294093E-01 -6.0617592129739E-01
98  9.7000000000000E-01  1.2213084752444E-01 -5.9989243756811E-01
99  9.8000000000000E-01  1.1313632456456E-01 -5.8963209138952E-01
100  9.9000000000000E-01  1.0458025976331E-01 -5.7554018226817E-01
101  1.0000000000000E+00  9.6419156236557E-02 -5.5776705827666E-01
102  1.0100000000000E+00  8.8611740616047E-02 -5.3647382736340E-01
103  1.0200000000000E+00  8.1119984242877E-02 -5.1183963437624E-01
104  1.0300000000000E+00  7.3910236110302E-02 -4.8407047972666E-01
105  1.0400000000000E+00  6.6954462330602E-02 -4.5340953374043E-01
106  1.0500000000000E+00  6.0231585130273E-02 -4.2014888013985E-01
107  1.0600000000000E+00  5.3728912754525E-02 -3.8464260314117E-01
108  1.0700000000000E+00  4.7443650216728E-02 -3.4732111565546E-01
109  1.0800000000000E+00  4.1384479581379E-02 -3.0870661125442E-01
110  1.0900000000000E+00  3.5573197494276E-02 -2.6942951070607E-01
111  1.1000000000000E+00  3.0046381005961E-02 -2.3024559336997E-01
112  1.1100000000000E+00  2.4856887836626E-02 -1.9205172927221E-01
113  1.1200000000000E+00  2.0066393408566E-02 -1.5580525324772E-01
114  1.1300000000000E+00  1.5728841290625E-02 -1.2234356758153E-01
115  1.1400000000000E+00  1.1886899538252E-02 -9.2341972260654E-02
116  1.1500000000000E+00  8.5692362610119E-03 -6.6283257573165E-02
117  1.1600000000000E+00  5.7747687482556E-03 -4.4305036303328E-02
118  1.1700000000000E+00  3.5251913041792E-03 -2.6712841387948E-02
119  1.1800000000000E+00  1.8347817343926E-03 -1.3669976829946E-02
120  1.1900000000000E+00  7.0190869096716E-04 -5.1156614389140E-03
121  1.2000000000000E+00  1.1009086632738E-04 -7.8031261627843E-04
122  1.2100000000000E+00 -6.0127417147535E-06  4.1605086751499E-05
123  1.2200000000000E+00  8.0056116764964E-07 -5.5930775015705E-06
124  1.23 -0.  0.
125  1.24  0.  0.
126  1.25  0.  0.
127  1.26  0.  0.
128  1.27  0.  0.
129  1.28  0.  0.
130  1.29  0.  0.
131  1.30  0.  0.
132  1.31  0.  0.
133  1.32  0.  0.
134  1.33  0.  0.
135  1.34  0.  0.
136  1.35  0.  0.
137  1.36  0.  0.
138  1.37  0.  0.
139  1.38  0.  0.
140  1.39  0.  0.
141  1.40  0.  0.
142  1.41  0.  0.
143  1.42  0.  0.
144  1.43  0.  0.
145  1.44  0.  0.
146  1.45  0.  0.
147  1.46  0.  0.
148  1.47  0.  0.
149  1.48  0.  0.
150  1.49  0.  0.
151  1.50  0.  0.
152  1.51  0.  0.
153  1.52  0.  0.
154  1.53  0.  0.
155  1.54  0.  0.
156  1.55  0.  0.
157  1.56  0.  0.
158  1.57  0.  0.
159  1.58  0.  0.
160  1.59  0.  0.
161  1.60  0.  0.
162  1.61  0.  0.
163  1.62  0.  0.
164  1.63  0.  0.
165  1.64  0.  0.
166  1.65  0.  0.
167  1.66  0.  0.
168  1.67  0.  0.
169  1.68  0.  0.