Lv    ONCVPSP-4.0.1  r_core=   1.60171   1.60171   1.80527
    116.0000     24.0000      211218    zatom,zion,pspd
     8      11   2     4   600     0    pspcod,pspxc,lmax,lloc,mmax,r2well
  5.99000000  5.00000000  0.00000000    rchrg fchrg qchrg
     2     2     2     0     0    nproj
     1     1           extension_switch
   0                         1.0311584182033E+01 -1.8618864250199E+00
     1  0.0000000000000E+00  2.2544222044729E-10  2.0071752593331E-10
     2  1.0000000000000E-02  8.8338584407994E-02  1.3742456020086E-02
     3  2.0000000000000E-02  1.7643139992577E-01  2.7497284204557E-02
     4  3.0000000000000E-02  2.6403330164904E-01  4.1276693174356E-02
     5  4.0000000000000E-02  3.5090039382012E-01  5.5092567406434E-02
     6  5.0000000000000E-02  4.3679065727898E-01  6.8956312466669E-02
     7  6.0000000000000E-02  5.2146458020346E-01  8.2878708862985E-02
     8  7.0000000000000E-02  6.0468579296443E-01  9.6869777151870E-02
     9  8.0000000000000E-02  6.8622170769657E-01  1.1093865673077E-01
    10  9.0000000000000E-02  7.6584416291110E-01  1.2509350050436E-01
    11  1.0000000000000E-01  8.4333007315985E-01  1.3934138732838E-01
    12  1.1000000000000E-01  9.1846208340484E-01  1.5368825381575E-01
    13  1.2000000000000E-01  9.9102922736189E-01  1.6813884674072E-01
    14  1.3000000000000E-01  1.0608275886771E+00  1.8269669690468E-01
    15  1.4000000000000E-01  1.1276609633699E+00  1.9736411493715E-01
    16  1.5000000000000E-01  1.1913415215424E+00  2.1214220910514E-01
    17  1.6000000000000E-01  1.2516904659233E+00  2.2703092479932E-01
    18  1.7000000000000E-01  1.3085386843898E+00  2.4202910496364E-01
    19  1.8000000000000E-01  1.3617273932050E+00  2.5713457034340E-01
    20  1.9000000000000E-01  1.4111087673301E+00  2.7234421805106E-01
    21  2.0000000000000E-01  1.4565465538201E+00  2.8765413659705E-01
    22  2.1000000000000E-01  1.4979166640122E+00  3.0305973520945E-01
    23  2.2000000000000E-01  1.5351077399540E+00  3.1855588497847E-01
    24  2.3000000000000E-01  1.5680216903215E+00  3.3413706911315E-01
    25  2.4000000000000E-01  1.5965741909308E+00  3.4979753939476E-01
    26  2.5000000000000E-01  1.6206951448747E+00  3.6553147575568E-01
    27  2.6000000000000E-01  1.6403290973034E+00  3.8133314580934E-01
    28  2.7000000000000E-01  1.6554355999325E+00  3.9719706110692E-01
    29  2.8000000000000E-01  1.6659895204979E+00  4.1311812690124E-01
    30  2.9000000000000E-01  1.6719812925830E+00  4.2909178225940E-01
    31  3.0000000000000E-01  1.6734171015253E+00  4.4511412748095E-01
    32  3.1000000000000E-01  1.6703190024601E+00  4.6118203594772E-01
    33  3.2000000000000E-01  1.6627249669762E+00  4.7729324775226E-01
    34  3.3000000000000E-01  1.6506888553403E+00  4.9344644272032E-01
    35  3.4000000000000E-01  1.6342803117856E+00  5.0964129075622E-01
    36  3.5000000000000E-01  1.6135845809500E+00  5.2587847779249E-01
    37  3.6000000000000E-01  1.5887022441870E+00  5.4215970601215E-01
    38  3.7000000000000E-01  1.5597488751438E+00  5.5848766742699E-01
    39  3.8000000000000E-01  1.5268546147026E+00  5.7486599033197E-01
    40  3.9000000000000E-01  1.4901636661048E+00  5.9129915860732E-01
    41  4.0000000000000E-01  1.4498337118049E+00  6.0779240429913E-01
    42  4.1000000000000E-01  1.4060352543393E+00  6.2435157436800E-01
    43  4.2000000000000E-01  1.3589508842130E+00  6.4098297294772E-01
    44  4.3000000000000E-01  1.3087744785163E+00  6.5769318089241E-01
    45  4.4000000000000E-01  1.2557103346571E+00  6.7448885480621E-01
    46  4.5000000000000E-01  1.1999722442352E+00  6.9137650813544E-01
    47  4.6000000000000E-01  1.1417825126780E+00  7.0836227725391E-01
    48  4.7000000000000E-01  1.0813709307946E+00  7.2545167578147E-01
    49  4.8000000000000E-01  1.0189737048825E+00  7.4264934063812E-01
    50  4.9000000000000E-01  9.5483235243284E-01  7.5995877354670E-01
    51  5.0000000000000E-01  8.8919257081073E-01  7.7738208185290E-01
    52  5.1000000000000E-01  8.2230308654840E-01  7.9491972262777E-01
    53  5.2000000000000E-01  7.5441449306236E-01  8.1257025405475E-01
    54  5.3000000000000E-01  6.8577808469785E-01  8.3033009807745E-01
    55  5.4000000000000E-01  6.1664469501077E-01  8.4819331819739E-01
    56  5.5000000000000E-01  5.4726354711906E-01  8.6615141616274E-01
    57  5.6000000000000E-01  4.7788112379468E-01  8.8419315108133E-01
    58  5.7000000000000E-01  4.0874006472533E-01  9.0230438422757E-01
    59  5.8000000000000E-01  3.4007809805633E-01  9.2046795249652E-01
    60  5.9000000000000E-01  2.7212701293259E-01  9.3866357309333E-01
    61  6.0000000000000E-01  2.0511167930355E-01  9.5686778163925E-01
    62  6.1000000000000E-01  1.3924912073796E-01  9.7505390543177E-01
    63  6.2000000000000E-01  7.4747645427499E-02  9.9319207312221E-01
    64  6.3000000000000E-01  1.1806039946887E-02  1.0112492615787E+00
    65  6.4000000000000E-01 -4.9387170307610E-02  1.0291893801906E+00
    66  6.5000000000000E-01 -1.0865439075060E-01  1.0469733923538E+00
    67  6.6000000000000E-01 -1.6582955474706E-01  1.0645594733576E+00
    68  6.7000000000000E-01 -2.2075864638821E-01  1.0819032033895E+00
    69  6.8000000000000E-01 -2.7330014772288E-01  1.0989577938799E+00
    70  6.9000000000000E-01 -3.2332540994021E-01  1.1156743449496E+00
    71  7.0000000000000E-01 -3.7071894865512E-01  1.1320021312840E+00
    72  7.1000000000000E-01 -4.1537866407292E-01  1.1478889133705E+00
    73  7.2000000000000E-01 -4.5721598739665E-01  1.1632812706834E+00
    74  7.3000000000000E-01 -4.9615595538283E-01  1.1781249531083E+00
    75  7.4000000000000E-01 -5.3213721544237E-01  1.1923652466533E+00
    76  7.5000000000000E-01 -5.6511196411806E-01  1.2059473493165E+00
    77  7.6000000000000E-01 -5.9504582214425E-01  1.2188167528587E+00
    78  7.7000000000000E-01 -6.2191764960536E-01  1.2309196261752E+00
    79  7.8000000000000E-01 -6.4571930495566E-01  1.2422031959734E+00
    80  7.9000000000000E-01 -6.6645535184278E-01  1.2526161205341E+00
    81  8.0000000000000E-01 -6.8414271779224E-01  1.2621088524753E+00
    82  8.1000000000000E-01 -6.9881030886183E-01  1.2706339866341E+00
    83  8.2000000000000E-01 -7.1049858436578E-01  1.2781465894368E+00
    84  8.3000000000000E-01 -7.1925909570274E-01  1.2846045064388E+00
    85  8.4000000000000E-01 -7.2515399320450E-01  1.2899686450661E+00
    86  8.5000000000000E-01 -7.2825550475922E-01  1.2942032299906E+00
    87  8.6000000000000E-01 -7.2864538976022E-01  1.2972760289988E+00
    88  8.7000000000000E-01 -7.2641437169655E-01  1.2991585476729E+00
    89  8.8000000000000E-01 -7.2166155244261E-01  1.2998261916765E+00
    90  8.9000000000000E-01 -7.1449381102757E-01  1.2992583959255E+00
    91  9.0000000000000E-01 -7.0502518938130E-01  1.2974387204129E+00
    92  9.1000000000000E-01 -6.9337626726848E-01  1.2943549129379E+00
    93  9.2000000000000E-01 -6.7967352834548E-01  1.2899989394583E+00
    94  9.3000000000000E-01 -6.6404871901234E-01  1.2843669832297E+00
    95  9.4000000000000E-01 -6.4663820149299E-01  1.2774594143129E+00
    96  9.5000000000000E-01 -6.2758230236557E-01  1.2692807314036E+00
    97  9.6000000000000E-01 -6.0702465758945E-01  1.2598394782790E+00
    98  9.7000000000000E-01 -5.8511155493838E-01  1.2491481374365E+00
    99  9.8000000000000E-01 -5.6199127465683E-01  1.2372230037338E+00
   100  9.9000000000000E-01 -5.3781342910979E-01  1.2240840410110E+00
   101  1.0000000000000E+00 -5.1272830219749E-01  1.2097547247901E+00
   102  1.0100000000000E+00 -4.8688618935663E-01  1.1942618741987E+00
   103  1.0200000000000E+00 -4.6043673906729E-01  1.1776354762506E+00
   104  1.0300000000000E+00 -4.3352829692808E-01  1.1599085055481E+00
   105  1.0400000000000E+00 -4.0630725354869E-01  1.1411167423329E+00
   106  1.0500000000000E+00 -3.7891739773373E-01  1.1212985916242E+00
   107  1.0600000000000E+00 -3.5149927669013E-01  1.1004949059430E+00
   108  1.0700000000000E+00 -3.2418956527552E-01  1.0787488138238E+00
   109  1.0800000000000E+00 -2.9712044661060E-01  1.0561055559884E+00
   110  1.0900000000000E+00 -2.7041900669560E-01  1.0326123306843E+00
   111  1.1000000000000E+00 -2.4420664599260E-01  1.0083181492933E+00
   112  1.1100000000000E+00 -2.1859851125114E-01  9.8327370290055E-01
   113  1.1200000000000E+00 -1.9370295115706E-01  9.5753124008586E-01
   114  1.1300000000000E+00 -1.6962099966265E-01  9.3114445576420E-01
   115  1.1400000000000E+00 -1.4644589110286E-01  9.0416839048038E-01
   116  1.1500000000000E+00 -1.2426261140670E-01  8.7665933914841E-01
   117  1.1600000000000E+00 -1.0314748986865E-01  8.4867476783810E-01
   118  1.1700000000000E+00 -8.3167836041925E-02  8.2027323685487E-01
   119  1.1800000000000E+00 -6.4381626348765E-02  7.9151432803947E-01
   120  1.1900000000000E+00 -4.6837244964830E-02  7.6245857394367E-01
   121  1.2000000000000E+00 -3.0573283420149E-02  7.3316738631838E-01
   122  1.2100000000000E+00 -1.5618403165566E-02  7.0370298119106E-01
   123  1.2200000000000E+00 -1.9912650749311E-03  6.7412829771250E-01
   124  1.2300000000000E+00  1.0299470508942E-02  6.4450690792377E-01
   125  1.2400000000000E+00  2.1255070023731E-02  6.1490291463504E-01
   126  1.2500000000000E+00  3.0886576606146E-02  5.8538083472095E-01
   127  1.2600000000000E+00  3.9214581665655E-02  5.5600546532221E-01
   128  1.2700000000000E+00  4.6268916794291E-02  5.2684173070070E-01
   129  1.2800000000000E+00  5.2088265462429E-02  4.9795450782389E-01
   130  1.2900000000000E+00  5.6719694783796E-02  4.6940842914953E-01
   131  1.3000000000000E+00  6.0218108532956E-02  4.4126766154287E-01
   132  1.3100000000000E+00  6.2645623550067E-02  4.1359566077991E-01
   133  1.3200000000000E+00  6.4070872662902E-02  3.8645490166521E-01
   134  1.3300000000000E+00  6.4568238288136E-02  3.5990658441690E-01
   135  1.3400000000000E+00  6.4217021934104E-02  3.3401031864004E-01
   136  1.3500000000000E+00  6.3100555899646E-02  3.0882378691118E-01
   137  1.3600000000000E+00  6.1305264540090E-02  2.8440239072498E-01
   138  1.3700000000000E+00  5.8919683547265E-02  2.6079888230593E-01
   139  1.3800000000000E+00  5.6033446745103E-02  2.3806298654881E-01
   140  1.3900000000000E+00  5.2736250932039E-02  2.1624101811752E-01
   141  1.4000000000000E+00  4.9116810292778E-02  1.9537549949293E-01
   142  1.4100000000000E+00  4.5261812847435E-02  1.7550478651051E-01
   143  1.4200000000000E+00  4.1254892296528E-02  1.5666270866044E-01
   144  1.4300000000000E+00  3.7175629442749E-02  1.3887823212582E-01
   145  1.4400000000000E+00  3.3098598123459E-02  1.2217515420679E-01
   146  1.4500000000000E+00  2.9092471259832E-02  1.0657183841063E-01
   147  1.4600000000000E+00  2.5219203214600E-02  9.2081000074231E-02
   148  1.4700000000000E+00  2.1533305148073E-02  7.8709552925196E-02
   149  1.4800000000000E+00  1.8081230461554E-02  6.6458527469348E-02
   150  1.4900000000000E+00  1.4900887721190E-02  5.5323072519274E-02
   151  1.5000000000000E+00  1.2021297918539E-02  4.5292550545139E-02
   152  1.5100000000000E+00  9.4624177109530E-03  3.6350742277841E-02
   153  1.5200000000000E+00  7.2351321794351E-03  2.8476173480576E-02
   154  1.5300000000000E+00  5.3390408851729E-03  2.1638940861084E-02
   155  1.5400000000000E+00  3.7652067887043E-03  1.5804269717661E-02
   156  1.5500000000000E+00  2.5026587569920E-03  1.0942384393116E-02
   157  1.5600000000000E+00  1.5323911744405E-03  7.0199272563747E-03
   158  1.5700000000000E+00  8.2892286694972E-04  4.0014004011942E-03
   159  1.5800000000000E+00  3.6193585287022E-04  1.8511108114301E-03
   160  1.5900000000000E+00  9.7016834696084E-05  5.2774851158491E-04
   161  1.6000000000000E+00  4.0633651731081E-06  2.3833728453642E-05
   162  1.6100000000000E+00 -8.2057053786722E-07 -4.9674062734255E-06
   163  1.6200000000000E+00  2.4504327634776E-07  1.4222005681202E-06
   164  1.63 -0. -0.
   165  1.64 -0. -0.
   166  1.65  0.  0.
   167  1.66  0.  0.
   168  1.67  0.  0.
   169  1.68  0.  0.
   170  1.69  0.  0.
   171  1.70  0.  0.
   172  1.71  0.  0.
   173  1.72  0.  0.
   174  1.73  0.  0.
   175  1.74  0.  0.
   176  1.75  0.  0.
   177  1.76  0.  0.
   178  1.77  0.  0.
   179  1.78  0.  0.
   180  1.79  0.  0.
   181  1.80  0.  0.
   182  1.81  0.  0.
   183  1.82  0.  0.
   184  1.83  0.  0.
   185  1.84  0.  0.
   186  1.85  0.  0.
   187  1.86  0.  0.
   188  1.87  0.  0.
   189  1.88  0.  0.
   190  1.89  0.  0.
   191  1.90  0.  0.
   192  1.91  0.  0.
   193  1.92  0.  0.
   194  1.93  0.  0.
   195  1.94  0.  0.
   196  1.95  0.  0.
   197  1.96  0.  0.
   198  1.97  0.  0.
   199  1.98  0.  0.
   200  1.99  0.  0.
   201  2.00  0.  0.
   202  2.01  0.  0.
   203  2.02  0.  0.
   204  2.03  0.  0.
   205  2.04  0.  0.
   206  2.05  0.  0.
   207  2.06  0.  0.
   208  2.07  0.  0.
   209  2.08  0.  0.
   210  2.09  0.  0.
   211  2.10  0.  0.
   212  2.11  0.  0.
   213  2.12  0.  0.
   214  2.13  0.  0.
   215  2.14  0.  0.
   216  2.15  0.  0.
   217  2.16  0.  0.
   218  2.17  0.  0.
   219  2.18  0.  0.
   220  2.19  0.  0.
   221  2.20  0.  0.
   222  2.21  0.  0.
   223  2.22  0.  0.
   224  2.23  0.  0.
   225  2.24  0.  0.
   226  2.25  0.  0.
   227  2.26  0.  0.
   228  2.27  0.  0.
   229  2.28  0.  0.
   230  2.29  0.  0.
   231  2.30  0.  0.
   232  2.31  0.  0.
   233  2.32  0.  0.
   234  2.33  0.  0.
   235  2.34  0.  0.
   236  2.35  0.  0.
   237  2.36  0.  0.
   238  2.37  0.  0.
   239  2.38  0.  0.
   240  2.39  0.  0.
   241  2.40  0.  0.
   242  2.41  0.  0.
   243  2.42  0.  0.
   244  2.43  0.  0.
   245  2.44  0.  0.
   246  2.45  0.  0.
   247  2.46  0.  0.
   248  2.47  0.  0.
   249  2.48  0.  0.
   250  2.49  0.  0.
   251  2.50  0.  0.
   252  2.51  0.  0.
   253  2.52  0.  0.
   254  2.53  0.  0.
   255  2.54  0.  0.
   256  2.55  0.  0.
   257  2.56  0.  0.
   258  2.57  0.  0.
   259  2.58  0.  0.
   260  2.59  0.  0.
   261  2.60  0.  0.
   262  2.61  0.  0.
   263  2.62  0.  0.
   264  2.63  0.  0.
   265  2.64  0.  0.
   266  2.65  0.  0.
   267  2.66  0.  0.
   268  2.67  0.  0.
   269  2.68  0.  0.
   270  2.69  0.  0.
   271  2.70  0.  0.
   272  2.71  0.  0.
   273  2.72  0.  0.
   274  2.73  0.  0.
   275  2.74  0.  0.
   276  2.75  0.  0.
   277  2.76  0.  0.
   278  2.77  0.  0.
   279  2.78  0.  0.
   280  2.79  0.  0.
   281  2.80  0.  0.
   282  2.81  0.  0.
   283  2.82  0.  0.
   284  2.83  0.  0.
   285  2.84  0.  0.
   286  2.85  0.  0.
   287  2.86  0.  0.
   288  2.87  0.  0.
   289  2.88  0.  0.
   290  2.89  0.  0.
   291  2.90  0.  0.
   292  2.91  0.  0.
   293  2.92  0.  0.
   294  2.93  0.  0.
   295  2.94  0.  0.
   296  2.95  0.  0.
   297  2.96  0.  0.
   298  2.97  0.  0.
   299  2.98  0.  0.
   300  2.99  0.  0.
   301  3.00  0.  0.
   302  3.01  0.  0.
   303  3.02  0.  0.
   304  3.03  0.  0.
   305  3.04  0.  0.
   306  3.05  0.  0.
   307  3.06  0.  0.
   308  3.07  0.  0.
   309  3.08  0.  0.
   310  3.09  0.  0.
   311  3.10  0.  0.
   312  3.11  0.  0.
   313  3.12  0.  0.
   314  3.13  0.  0.
   315  3.14  0.  0.
   316  3.15  0.  0.
   317  3.16  0.  0.
   318  3.17  0.  0.
   319  3.18  0.  0.
   320  3.19  0.  0.
   321  3.20  0.  0.
   322  3.21  0.  0.
   323  3.22  0.  0.
   324  3.23  0.  0.
   325  3.24  0.  0.
   326  3.25  0.  0.
   327  3.26  0.  0.
   328  3.27  0.  0.
   329  3.28  0.  0.
   330  3.29  0.  0.
   331  3.30  0.  0.
   332  3.31  0.  0.
   333  3.32  0.  0.
   334  3.33  0.  0.
   335  3.34  0.  0.
   336  3.35  0.  0.
   337  3.36  0.  0.
   338  3.37  0.  0.
   339  3.38  0.  0.
   340  3.39  0.  0.
   341  3.40  0.  0.
   342  3.41  0.  0.
   343  3.42  0.  0.
   344  3.43  0.  0.
   345  3.44  0.  0.
   346  3.45  0.  0.
   347  3.46  0.  0.
   348  3.47  0.  0.
   349  3.48  0.  0.
   350  3.49  0.  0.
   351  3.50  0.  0.
   352  3.51  0.  0.
   353  3.52  0.  0.
   354  3.53  0.  0.
   355  3.54  0.  0.
   356  3.55  0.  0.
   357  3.56  0.  0.
   358  3.57  0.  0.
   359  3.58  0.  0.
   360  3.59  0.  0.
   361  3.60  0.  0.
   362  3.61  0.  0.
   363  3.62  0.  0.
   364  3.63  0.  0.
   365  3.64  0.  0.
   366  3.65  0.  0.
   367  3.66  0.  0.
   368  3.67  0.  0.
   369  3.68  0.  0.
   370  3.69  0.  0.
   371  3.70  0.  0.
   372  3.71  0.  0.
   373  3.72  0.  0.
   374  3.73  0.  0.
   375  3.74  0.  0.
   376  3.75  0.  0.
   377  3.76  0.  0.
   378  3.77  0.  0.
   379  3.78  0.  0.
   380  3.79  0.  0.
   381  3.80  0.  0.
   382  3.81  0.  0.
   383  3.82  0.  0.
   384  3.83  0.  0.
   385  3.84  0.  0.
   386  3.85  0.  0.
   387  3.86  0.  0.
   388  3.87  0.  0.
   389  3.88  0.  0.
   390  3.89  0.  0.
   391  3.90  0.  0.
   392  3.91  0.  0.
   393  3.92  0.  0.
   394  3.93  0.  0.
   395  3.94  0.  0.
   396  3.95  0.  0.
   397  3.96  0.  0.
   398  3.97  0.  0.
   399  3.98  0.  0.
   400  3.99  0.  0.
   401  4.00  0.  0.
   402  4.01  0.  0.
   403  4.02  0.  0.
   404  4.03  0.  0.
   405  4.04  0.  0.
   406  4.05  0.  0.
   407  4.06  0.  0.
   408  4.07  0.  0.
   409  4.08  0.  0.
   410  4.09  0.  0.
   411  4.10  0.  0.
   412  4.11  0.  0.
   413  4.12  0.  0.
   414  4.13  0.  0.
   415  4.14  0.  0.
   416  4.15  0.  0.
   417  4.16  0.  0.
   418  4.17  0.  0.
   419  4.18  0.  0.
   420  4.19  0.  0.
   421  4.20  0.  0.
   422  4.21  0.  0.
   423  4.22  0.  0.
   424  4.23  0.  0.
   425  4.24  0.  0.
   426  4.25  0.  0.
   427  4.26  0.  0.
   428  4.27  0.  0.
   429  4.28  0.  0.
   430  4.29  0.  0.
   431  4.30  0.  0.
   432  4.31  0.  0.
   433  4.32  0.  0.
   434  4.33  0.  0.
   435  4.34  0.  0.
   436  4.35  0.  0.
   437  4.36  0.  0.
   438  4.37  0.  0.
   439  4.38  0.  0.
   440  4.39  0.  0.
   441  4.40  0.  0.
   442  4.41  0.  0.
   443  4.42  0.  0.
   444  4.43  0.  0.
   445  4.44  0.  0.
   446  4.45  0.  0.
   447  4.46  0.  0.
   448  4.47  0.  0.
   449  4.48  0.  0.
   450  4.49  0.  0.
   451  4.50  0.  0.
   452  4.51  0.  0.
   453  4.52  0.  0.
   454  4.53  0.  0.
   455  4.54  0.  0.
   456  4.55  0.  0.
   457  4.56  0.  0.
   458  4.57  0.  0.
   459  4.58  0.  0.
   460  4.59  0.  0.
   461  4.60  0.  0.
   462  4.61  0.  0.
   463  4.62  0.  0.
   464  4.63  0.  0.
   465  4.64  0.  0.
   466  4.65  0.  0.
   467  4.66  0.  0.
   468  4.67  0.  0.
   469  4.68  0.  0.
   470  4.69  0.  0.
   471  4.70  0.  0.
   472  4.71  0.  0.
   473  4.72  0.  0.
   474  4.73  0.  0.
   475  4.74  0.  0.
   476  4.75  0.  0.
   477  4.76  0.  0.
   478  4.77  0.  0.
   479  4.78  0.  0.
   480  4.79  0.  0.
   481  4.80  0.  0.
   482  4.81  0.  0.
   483  4.82  0.  0.
   484  4.83  0.  0.
   485  4.84  0.  0.
   486  4.85  0.  0.
   487  4.86  0.  0.
   488  4.87  0.  0.
   489  4.88  0.  0.
   490  4.89  0.  0.
   491  4.90  0.  0.
   492  4.91  0.  0.
   493  4.92  0.  0.
   494  4.93  0.  0.
   495  4.94  0.  0.
   496  4.95  0.  0.
   497  4.96  0.  0.
   498  4.97  0.  0.
   499  4.98  0.  0.
   500  4.99  0.  0.
   501  5.00  0.  0.
   502  5.01  0.  0.
   503  5.02  0.  0.
   504  5.03  0.  0.
   505  5.04  0.  0.
   506  5.05  0.  0.
   507  5.06  0.  0.
   508  5.07  0.  0.
   509  5.08  0.  0.
   510  5.09  0.  0.
   511  5.10  0.  0.
   512  5.11  0.  0.
   513  5.12  0.  0.
   514  5.13  0.  0.
   515  5.14  0.  0.
   516  5.15  0.  0.
   517  5.16  0.  0.
   518  5.17  0.  0.
   519  5.18  0.  0.
   520  5.19  0.  0.
   521  5.20  0.  0.
   522  5.21  0.  0.
   523  5.22  0.  0.
   524  5.23  0.  0.
   525  5.24  0.  0.
   526  5.25  0.  0.
   527  5.26  0.  0.
   528  5.27  0.  0.
   529  5.28  0.  0.
   530  5.29  0.  0.
   531  5.30  0.  0.
   532  5.31  0.  0.
   533  5.32  0.  0.
   534  5.33  0.  0.
   535  5.34  0.  0.
   536  5.35  0.  0.
   537  5.36  0.  0.
   538  5.37  0.  0.
   539  5.38  0.  0.
   540  5.39  0.  0.
   541  5.40  0.  0.
   542  5.41  0.  0.
   543  5.42  0.  0.
   544  5.43  0.  0.
   545  5.44  0.  0.
   546  5.45  0.  0.
   547  5.46  0.  0.
   548  5.47  0.  0.
   549  5.48  0.  0.
   550  5.49  0.  0.
   551  5.50  0.  0.
   552  5.51  0.  0.
   553  5.52  0.  0.
   554  5.53  0.  0.
   555  5.54  0.  0.
   556  5.55  0.  0.
   557  5.56  0.  0.
   558  5.57  0.  0.
   559  5.58  0.  0.
   560  5.59  0.  0.
   561  5.60  0.  0.
   562  5.61  0.  0.
   563  5.62  0.  0.
   564  5.63  0.  0.
   565  5.64  0.  0.
   566  5.65  0.  0.
   567  5.66  0.  0.
   568  5.67  0.  0.
   569  5.68  0.  0.
   570  5.69  0.  0.
   571  5.70  0.  0.
   572  5.71  0.  0.
   573  5.72  0.  0.
   574  5.73  0.  0.
   575  5.74  0.  0.
   576  5.75  0.  0.
   577  5.76  0.  0.
   578  5.77  0.  0.
   579  5.78  0.  0.
   580  5.79  0.  0.
   581  5.80  0.  0.
   582  5.81  0.  0.
   583  5.82  0.  0.
   584  5.83  0.  0.
   585  5.84  0.  0.
   586  5.85  0.  0.
   587  5.86  0.  0.
   588  5.87  0.  0.
   589  5.88  0.  0.
   590  5.89  0.  0.
   591  5.90  0.  0.
   592  5.91  0.  0.
   593  5.92  0.  0.
   594  5.93  0.  0.
   595  5.94  0.  0.
   596  5.95  0.  0.
   597  5.96  0.  0.
   598  5.97  0.  0.
   599  5.98  0.  0.
   600  5.99  0.  0.
   1                         6.6995693223002E+00 -8.2226542588490E-01
     1  0.0000000000000E+00 -1.2412941369222E-09 -2.0000835852969E-09
     2  1.0000000000000E-02  1.8033599869430E-03  2.9425886079619E-05
     3  2.0000000000000E-02  7.2070295067126E-03  1.2012737777215E-04
     4  3.0000000000000E-02  1.6191769529247E-02  2.7932112864384E-04
     5  4.0000000000000E-02  2.8725490072176E-02  5.1885326261483E-04
     6  5.0000000000000E-02  4.4763215435612E-02  8.5493106897605E-04
     7  6.0000000000000E-02  6.4247040734572E-02  1.3077555739995E-03
     8  7.0000000000000E-02  8.7106084787514E-02  1.9010629853566E-03
     9  8.0000000000000E-02  1.1325644566078E-01  2.6615850056416E-03
    10  9.0000000000000E-02  1.4260116626243E-01  3.6184398054937E-03
    11  1.0000000000000E-01  1.7503021829865E-01  4.8024669982661E-03
    12  1.1000000000000E-01  2.1042051362838E-01  6.2455212337299E-03
    13  1.2000000000000E-01  2.4863595255757E-01  7.9797400017047E-03
    14  1.3000000000000E-01  2.8952751888928E-01  1.0036801885785E-02
    15  1.4000000000000E-01  3.3293343157897E-01  1.2447191818758E-02
    16  1.5000000000000E-01  3.7867936263023E-01  1.5239489856114E-02
    17  1.6000000000000E-01  4.2657873040616E-01  1.8439699601875E-02
    18  1.7000000000000E-01  4.7643307682767E-01  2.2070631697373E-02
    19  1.8000000000000E-01  5.2803253599530E-01  2.6151356731538E-02
    20  1.9000000000000E-01  5.8115640061678E-01  3.0696740570035E-02
    21  2.0000000000000E-01  6.3557379127111E-01  3.5717073456123E-02
    22  2.1000000000000E-01  6.9104443201180E-01  4.1217802339724E-02
    23  2.2000000000000E-01  7.4731953413664E-01  4.7199373779680E-02
    24  2.3000000000000E-01  8.0414278815780E-01  5.3657192479022E-02
    25  2.4000000000000E-01  8.6125146212882E-01  6.0581698098879E-02
    26  2.5000000000000E-01  9.1837760255797E-01  6.7958560501748E-02
    27  2.6000000000000E-01  9.7524933219907E-01  7.5768991048804E-02
    28  2.7000000000000E-01  1.0315922370970E+00  8.3990165069637E-02
    29  2.8000000000000E-01  1.0871308334149E+00  9.2595748187186E-02
    30  2.9000000000000E-01  1.1415901028176E+00  1.0155651686550E-01
    31  3.0000000000000E-01  1.1946970835729E+00  1.1084106140107E-01
    32  3.1000000000000E-01  1.2461825030796E+00  1.2041655764495E-01
    33  3.2000000000000E-01  1.2957824362886E+00  1.3024959206375E-01
    34  3.3000000000000E-01  1.3432399734537E+00  1.4030702335911E-01
    35  3.4000000000000E-01  1.3883068798806E+00  1.5055686279874E-01
    36  3.5000000000000E-01  1.4307452298314E+00  1.6096915469229E-01
    37  3.6000000000000E-01  1.4703289965225E+00  1.7151683809077E-01
    38  3.7000000000000E-01  1.5068455802133E+00  1.8217657080950E-01
    39  3.8000000000000E-01  1.5400972567509E+00  1.9292949727725E-01
    40  3.9000000000000E-01  1.5699025295792E+00  2.0376194249272E-01
    41  4.0000000000000E-01  1.5960973691660E+00  2.1466601551495E-01
    42  4.1000000000000E-01  1.6185363250014E+00  2.2564010740716E-01
    43  4.2000000000000E-01  1.6370934967891E+00  2.3668927036878E-01
    44  4.3000000000000E-01  1.6516633531422E+00  2.4782546689715E-01
    45  4.4000000000000E-01  1.6621613879896E+00  2.5906768017925E-01
    46  4.5000000000000E-01  1.6685246069722E+00  2.7044187948295E-01
    47  4.6000000000000E-01  1.6707118383084E+00  2.8198083704784E-01
    48  4.7000000000000E-01  1.6687038649209E+00  2.9372379581695E-01
    49  4.8000000000000E-01  1.6625033769757E+00  3.0571599024795E-01
    50  4.9000000000000E-01  1.6521347463780E+00  3.1800802533971E-01
    51  5.0000000000000E-01  1.6376436271251E+00  3.3065512185169E-01
    52  5.1000000000000E-01  1.6190963877246E+00  3.4371623842209E-01
    53  5.2000000000000E-01  1.5965793840732E+00  3.5725308385290E-01
    54  5.3000000000000E-01  1.5701980832530E+00  3.7132903517318E-01
    55  5.4000000000000E-01  1.5400760505700E+00  3.8600797916834E-01
    56  5.5000000000000E-01  1.5063538138243E+00  4.0135309682910E-01
    57  5.6000000000000E-01  1.4691876202242E+00  4.1742561159151E-01
    58  5.7000000000000E-01  1.4287481025090E+00  4.3428352327723E-01
    59  5.8000000000000E-01  1.3852188717173E+00  4.5198035027621E-01
    60  5.9000000000000E-01  1.3387950546100E+00  4.7056390272614E-01
    61  6.0000000000000E-01  1.2896817940141E+00  4.9007510922399E-01
    62  6.1000000000000E-01  1.2380927303116E+00  5.1054691895565E-01
    63  6.2000000000000E-01  1.1842484819329E+00  5.3200330005651E-01
    64  6.3000000000000E-01  1.1283751420632E+00  5.5445835353545E-01
    65  6.4000000000000E-01  1.0707028078252E+00  5.7791556023131E-01
    66  6.5000000000000E-01  1.0114641569993E+00  6.0236717605574E-01
    67  6.6000000000000E-01  9.5089308589381E-01  6.2779378824940E-01
    68  6.7000000000000E-01  8.8922342032928E-01  6.5416404258379E-01
    69  6.8000000000000E-01  8.2668770986810E-01  6.8143454843192E-01
    70  6.9000000000000E-01  7.6351611345895E-01  7.0954996546075E-01
    71  7.0000000000000E-01  6.9993538260133E-01  7.3844327242951E-01
    72  7.1000000000000E-01  6.3616794601918E-01  7.6803621526992E-01
    73  7.2000000000000E-01  5.7243109770429E-01  7.9823992834299E-01
    74  7.3000000000000E-01  5.0893628809353E-01  8.2895571957482E-01
    75  7.4000000000000E-01  4.4588851612274E-01  8.6007600713338E-01
    76  7.5000000000000E-01  3.8348581799476E-01  8.9148539248103E-01
    77  7.6000000000000E-01  3.2191884674907E-01  9.2306185207849E-01
    78  7.7000000000000E-01  2.6137053516125E-01  9.5467802777920E-01
    79  7.8000000000000E-01  2.0201583316421E-01  9.8620259408299E-01
    80  7.9000000000000E-01  1.4402150989662E-01  1.0175016789553E+00
    81  8.0000000000000E-01  8.7546009669570E-02  1.0484403138946E+00
    82  8.1000000000000E-01  3.2739350616795E-02  1.0788838883696E+00
    83  8.2000000000000E-01 -2.0256945434222E-02  1.1086995836635E+00
    84  8.3000000000000E-01 -7.1309903257111E-02  1.1377577615622E+00
    85  8.4000000000000E-01 -1.2029513569968E-01  1.1659332842005E+00
    86  8.5000000000000E-01 -1.6709688668097E-01  1.1931067427233E+00
    87  8.6000000000000E-01 -2.1160808511663E-01  1.2191655742038E+00
    88  8.7000000000000E-01 -2.5373041798090E-01  1.2440050484578E+00
    89  8.8000000000000E-01 -2.9337442929088E-01  1.2675291089576E+00
    90  8.9000000000000E-01 -3.3045965018129E-01  1.2896510549377E+00
    91  9.0000000000000E-01 -3.6491476346319E-01  1.3102940549426E+00
    92  9.1000000000000E-01 -3.9667780416796E-01  1.3293914854250E+00
    93  9.2000000000000E-01 -4.2569639561355E-01  1.3468870915115E+00
    94  9.3000000000000E-01 -4.5192801853793E-01  1.3627349706230E+00
    95  9.4000000000000E-01 -4.7534030887365E-01  1.3768993832195E+00
    96  9.5000000000000E-01 -4.9591137783355E-01  1.3893543984409E+00
    97  9.6000000000000E-01 -5.1363014618884E-01  1.4000833857805E+00
    98  9.7000000000000E-01 -5.2849668299143E-01  1.4090783670843E+00
    99  9.8000000000000E-01 -5.4052253756462E-01  1.4163392460405E+00
   100  9.9000000000000E-01 -5.4973105239988E-01  1.4218729348683E+00
   101  1.0000000000000E+00 -5.5615764368530E-01  1.4256924000592E+00
   102  1.0100000000000E+00 -5.5985003558341E-01  1.4278156507329E+00
   103  1.0200000000000E+00 -5.6086843409509E-01  1.4282646943986E+00
   104  1.0300000000000E+00 -5.5928562640887E-01  1.4270644856340E+00
   105  1.0400000000000E+00 -5.5518699205003E-01  1.4242418933842E+00
   106  1.0500000000000E+00 -5.4867041291562E-01  1.4198247122350E+00
   107  1.0600000000000E+00 -5.3984607040229E-01  1.4138407421282E+00
   108  1.0700000000000E+00 -5.2883611929185E-01  1.4063169595748E+00
   109  1.0800000000000E+00 -5.1577422983911E-01  1.3972788014975E+00
   110  1.0900000000000E+00 -5.0080499156896E-01  1.3867495804506E+00
   111  1.1000000000000E+00 -4.8408317462085E-01  1.3747500471301E+00
   112  1.1100000000000E+00 -4.6577284701464E-01  1.3612981128949E+00
   113  1.1200000000000E+00 -4.4604634893255E-01  1.3464087414860E+00
   114  1.1300000000000E+00 -4.2508312794535E-01  1.3300940153576E+00
   115  1.1400000000000E+00 -4.0306844202223E-01  1.3123633780662E+00
   116  1.1500000000000E+00 -3.8019194008193E-01  1.2932240501014E+00
   117  1.1600000000000E+00 -3.5664613272403E-01  1.2726816114407E+00
   118  1.1700000000000E+00 -3.3262476854927E-01  1.2507407400797E+00
   119  1.1800000000000E+00 -3.0832113410021E-01  1.2274060918756E+00
   120  1.1900000000000E+00 -2.8392629784317E-01  1.2026833033718E+00
   121  1.2000000000000E+00 -2.5962732075217E-01  1.1765800958624E+00
   122  1.2100000000000E+00 -2.3560545785513E-01  1.1491074559505E+00
   123  1.2200000000000E+00 -2.1203437655462E-01  1.1202808652532E+00
   124  1.2300000000000E+00 -1.8907841857130E-01  1.0901215498190E+00
   125  1.2400000000000E+00 -1.6689093296132E-01  1.0586577182830E+00
   126  1.2500000000000E+00 -1.4561270779485E-01  1.0259257568252E+00
   127  1.2600000000000E+00 -1.2537052773648E-01  9.9197134867896E-01