Lv    ONCVPSP-4.0.1  r_core=   1.40419   1.40419   1.40419   1.60171
116.0000     24.0000      220326    zatom,zion,pspd
8      11   3     4   600     0    pspcod,pspxc,lmax,lloc,mmax,r2well
5.99000000  5.00000000  0.00000000    rchrg fchrg qchrg
2     2     2     1     0    nproj
1     1           extension_switch
0                         1.4669219026418E+01 -2.7667417581917E-01
1  0.0000000000000E+00  3.5950298293841E-10  1.0225464808222E-08
2  1.0000000000000E-02  7.9883968177732E-02  2.0617112530626E-02
3  2.0000000000000E-02  1.5958950428953E-01  4.1375174961867E-02
4  3.0000000000000E-02  2.3893844788548E-01  6.2409506917493E-02
5  4.0000000000000E-02  3.1775318539648E-01  8.3844295506655E-02
6  5.0000000000000E-02  3.9585693260224E-01  1.0578734646972E-01
7  6.0000000000000E-02  4.7307402766931E-01  1.2832520871908E-01
8  7.0000000000000E-02  5.4923023785017E-01  1.5151878442549E-01
9  8.0000000000000E-02  6.2415308257470E-01  1.7539952657496E-01
10  9.0000000000000E-02  6.9767217522970E-01  1.9996631354423E-01
11  1.0000000000000E-01  7.6961958541916E-01  2.2518307597061E-01
12  1.1000000000000E-01  8.3983022293754E-01  2.5097723532275E-01
13  1.2000000000000E-01  9.0814224408220E-01  2.7723899644146E-01
14  1.3000000000000E-01  9.7439748029054E-01  3.0382151827226E-01
15  1.4000000000000E-01  1.0384418884271E+00  3.3054196842834E-01
16  1.5000000000000E-01  1.1001260213762E+00  3.5718344849384E-01
17  1.6000000000000E-01  1.1593055169351E+00  3.8349775849050E-01
18  1.7000000000000E-01  1.2158416023557E+00  4.0920895107574E-01
19  1.8000000000000E-01  1.2696016112776E+00  4.3401760918675E-01
20  1.9000000000000E-01  1.3204595092229E+00  4.5760576534967E-01
21  2.0000000000000E-01  1.3682964233195E+00  4.7964236705741E-01
22  2.1000000000000E-01  1.4130011714736E+00  4.9978918077719E-01
23  2.2000000000000E-01  1.4544707858468E+00  5.1770701752623E-01
24  2.3000000000000E-01  1.4926110252104E+00  5.3306215575747E-01
25  2.4000000000000E-01  1.5273368705588E+00  5.4553283267739E-01
26  2.5000000000000E-01  1.5585729982621E+00  5.5481567317458E-01
27  2.6000000000000E-01  1.5862542250387E+00  5.6063192631579E-01
28  2.7000000000000E-01  1.6103259191260E+00  5.6273338284826E-01
29  2.8000000000000E-01  1.6307443722147E+00  5.6090785326626E-01
30  2.9000000000000E-01  1.6474771270018E+00  5.5498409462698E-01
31  3.0000000000000E-01  1.6605032555882E+00  5.4483608525840E-01
32  3.1000000000000E-01  1.6698135844008E+00  5.3038655955949E-01
33  3.2000000000000E-01  1.6754108618499E+00  5.1160972997917E-01
34  3.3000000000000E-01  1.6773098655207E+00  4.8853313966048E-01
35  3.4000000000000E-01  1.6755374463476E+00  4.6123860680630E-01
36  3.5000000000000E-01  1.6701325079027E+00  4.2986224019158E-01
37  3.6000000000000E-01  1.6611459196485E+00  3.9459352402563E-01
38  3.7000000000000E-01  1.6486403637385E+00  3.5567348915983E-01
39  3.8000000000000E-01  1.6326901156829E+00  3.1339200604089E-01
40  3.9000000000000E-01  1.6133807599272E+00  2.6808425243682E-01
41  4.0000000000000E-01  1.5908088420940E+00  2.2012642543700E-01
42  4.1000000000000E-01  1.5650814603103E+00  1.6993078219606E-01
43  4.2000000000000E-01  1.5363157986711E+00  1.1794010703601E-01
44  4.3000000000000E-01  1.5046386064575E+00  6.4621713556804E-02
45  4.4000000000000E-01  1.4701856272372E+00  1.0461099102362E-02
46  4.5000000000000E-01  1.4331009824117E+00 -4.4044624908472E-02
47  4.6000000000000E-01  1.3935365141297E+00 -9.8393399771642E-02
48  4.7000000000000E-01  1.3516510927688E+00 -1.5208485562676E-01
49  4.8000000000000E-01  1.3076098943754E+00 -2.0462679112862E-01
50  4.9000000000000E-01  1.2615836535673E+00 -2.5554137555387E-01
51  5.0000000000000E-01  1.2137478974260E+00 -3.0437095952913E-01
52  5.1000000000000E-01  1.1642821658545E+00 -3.5068339029877E-01
53  5.2000000000000E-01  1.1133692237445E+00 -3.9407673940870E-01
54  5.3000000000000E-01  1.0611942700992E+00 -4.3418336459823E-01
55  5.4000000000000E-01  1.0079441489977E+00 -4.7067324325748E-01
56  5.5000000000000E-01  9.5380656696993E-01 -5.0325653167310E-01
57  5.6000000000000E-01  8.9896932099431E-01 -5.3168532207554E-01
58  5.7000000000000E-01  8.4361954093925E-01 -5.5575458781201E-01
59  5.8000000000000E-01  7.8794294985286E-01 -5.7530232539212E-01
60  5.9000000000000E-01  7.3212314508117E-01 -5.9020892026563E-01
61  6.0000000000000E-01  6.7634090276747E-01 -6.0039578058431E-01
62  6.1000000000000E-01  6.2077350786904E-01 -6.0582329947132E-01
63  6.2000000000000E-01  5.6559411143093E-01 -6.0648822109699E-01
64  6.3000000000000E-01  5.1097111648970E-01 -6.0242049879614E-01
65  6.4000000000000E-01  4.5706759365015E-01 -5.9367974425263E-01
66  6.5000000000000E-01  4.0404072709390E-01 -5.8035137516733E-01
67  6.6000000000000E-01  3.5204129154355E-01 -5.6254257460790E-01
68  6.7000000000000E-01  3.0121316052583E-01 -5.4037817827045E-01
69  6.8000000000000E-01  2.5169284615299E-01 -5.1399660607503E-01
70  6.9000000000000E-01  2.0360907057450E-01 -4.8354595185551E-01
71  7.0000000000000E-01  1.5708236923929E-01 -4.4918033942641E-01
72  7.1000000000000E-01  1.1222472615043E-01 -4.1105664513589E-01
73  7.2000000000000E-01  6.9139241383130E-02 -3.6933167630906E-01
74  7.3000000000000E-01  2.7919831268458E-02 -3.2415988199156E-01
75  7.4000000000000E-01 -1.1349038189414E-02 -2.7569165740466E-01
76  7.5000000000000E-01 -4.8592583903209E-02 -2.2407228685990E-01
77  7.6000000000000E-01 -8.3745903334012E-02 -1.6944155193735E-01
78  7.7000000000000E-01 -1.1675413598637E-01 -1.1193401291963E-01
79  7.8000000000000E-01 -1.4757258738345E-01 -5.1679952237038E-02
80  7.9000000000000E-01 -1.7616681395013E-01  1.1193050527862E-02
81  8.0000000000000E-01 -2.0251266707186E-01  7.6557961239986E-02
82  8.1000000000000E-01 -2.2659629447663E-01  1.4428561834485E-01
83  8.2000000000000E-01 -2.4841409701599E-01  2.1424162783667E-01
84  8.3000000000000E-01 -2.6797263890860E-01  2.8628292392947E-01
85  8.4000000000000E-01 -2.8528850956348E-01  3.6025410568062E-01
86  8.5000000000000E-01 -3.0038813522670E-01  4.3598366967429E-01
87  8.6000000000000E-01 -3.1330753889911E-01  5.1328026592826E-01
88  8.7000000000000E-01 -3.2409204725695E-01  5.9192910821537E-01
89  8.8000000000000E-01 -3.3279594367169E-01  6.7168867083794E-01
90  8.9000000000000E-01 -3.3948206686988E-01  7.5228780147111E-01
91  9.0000000000000E-01 -3.4422135529318E-01  8.3342337398997E-01
92  9.1000000000000E-01 -3.4709233780865E-01  9.1475859627426E-01
93  9.2000000000000E-01 -3.4818057207047E-01  9.9592207598655E-01
94  9.3000000000000E-01 -3.4757803253758E-01  1.0765077324496E+00
95  9.4000000000000E-01 -3.4538245089497E-01  1.1560756252904E+00
96  9.5000000000000E-01 -3.4169661239616E-01  1.2341537508120E+00
97  9.6000000000000E-01 -3.3662761242567E-01  1.3102408355035E+00
98  9.7000000000000E-01 -3.3028607835760E-01  1.3838101331541E+00
99  9.8000000000000E-01 -3.2278536254218E-01  1.4543142081831E+00
100  9.9000000000000E-01 -3.1424071297001E-01  1.5211906635615E+00
101  1.0000000000000E+00 -3.0476842882584E-01  1.5838687476227E+00
102  1.0100000000000E+00 -2.9448500873327E-01  1.6417767506743E+00
103  1.0200000000000E+00 -2.8350629999314E-01  1.6943500801792E+00
104  1.0300000000000E+00 -2.7194665751528E-01  1.7410398828984E+00
105  1.0400000000000E+00 -2.5991812142349E-01  1.7813220642744E+00
106  1.0500000000000E+00 -2.4752962246426E-01  1.8147065399161E+00
107  1.0600000000000E+00 -2.3488622436153E-01  1.8407465417769E+00
108  1.0700000000000E+00 -2.2208841212585E-01  1.8590477927772E+00
109  1.0800000000000E+00 -2.0923143504071E-01  1.8692773585470E+00
110  1.0900000000000E+00 -1.9640471261247E-01  1.8711719837993E+00
111  1.1000000000000E+00 -1.8369131117997E-01  1.8645457237570E+00
112  1.1100000000000E+00 -1.7116749814591E-01  1.8492966880220E+00
113  1.1200000000000E+00 -1.5890237991452E-01  1.8254127253084E+00
114  1.1300000000000E+00 -1.4695762861637E-01  1.7929758923398E+00
115  1.1400000000000E+00 -1.3538730157768E-01  1.7521655687908E+00
116  1.1500000000000E+00 -1.2423775627039E-01  1.7032601020362E+00
117  1.1600000000000E+00 -1.1354766217168E-01  1.6466368903819E+00
118  1.1700000000000E+00 -1.0334810959650E-01  1.5827708407778E+00
119  1.1800000000000E+00 -9.3662814154204E-02  1.5122311664784E+00
120  1.1900000000000E+00 -8.4508414060529E-02  1.4356765208056E+00
121  1.2000000000000E+00 -7.5894856110875E-02  1.3538484949604E+00
122  1.2100000000000E+00 -6.7825864741875E-02  1.2675635395059E+00
123  1.2200000000000E+00 -6.0299487272837E-02  1.1777034006771E+00
124  1.2300000000000E+00 -5.3308707173158E-02  1.0852041929154E+00
125  1.2400000000000E+00 -4.6842116058275E-02  9.9104425761302E-01
126  1.2500000000000E+00 -4.0884634095748E-02  8.9623098442316E-01
127  1.2600000000000E+00 -3.5418267635073E-02  8.0178679481478E-01
128  1.2700000000000E+00 -3.0422892164494E-02  7.0873450765243E-01
129  1.2800000000000E+00 -2.5877048169569E-02  6.1808232279367E-01
130  1.2900000000000E+00 -2.1758737130511E-02  5.3080867069059E-01
131  1.3000000000000E+00 -1.8046204755083E-02  4.4784718356453E-01
132  1.3100000000000E+00 -1.4718696476798E-02  3.7007210363166E-01
133  1.3200000000000E+00 -1.1757195890791E-02  2.9828377552340E-01
134  1.3300000000000E+00 -9.1450248387481E-03  2.3319728536372E-01
135  1.3400000000000E+00 -6.8702616223078E-03  1.7538192142591E-01
136  1.3500000000000E+00 -4.9274583911433E-03  1.2520764490311E-01
137  1.3600000000000E+00 -3.3066200558978E-03  8.3151892187826E-02
138  1.3700000000000E+00 -2.0028492485353E-03  4.9560858763722E-02
139  1.3800000000000E+00 -1.0171319026926E-03  2.4628908054058E-02
140  1.3900000000000E+00 -3.5458494653744E-04  8.3580787007814E-03
141  1.4000000000000E+00 -3.7456407918794E-05  8.5376801965022E-04
142  1.4100000000000E+00  4.1326681556535E-06 -9.2276239188005E-05
143  1.4200000000000E+00 -6.5093420339915E-07  1.4762951512553E-05
144  1.43 -0. -0.
145  1.44  0.  0.
146  1.45  0.  0.
147  1.46  0.  0.
148  1.47  0.  0.
149  1.48  0.  0.
150  1.49  0.  0.
151  1.50  0.  0.
152  1.51  0.  0.
153  1.52  0.  0.
154  1.53  0.  0.
155  1.54  0.  0.
156  1.55  0.  0.
157  1.56  0.  0.
158  1.57  0.  0.
159  1.58  0.  0.
160  1.59  0.  0.
161  1.60  0.  0.
162  1.61  0.  0.
163  1.62  0.  0.
164  1.63  0.  0.
165  1.64  0.  0.
166  1.65  0.  0.
167  1.66  0.  0.
168  1.67  0.  0.
169  1.68  0.  0.
170  1.69  0.  0.
171  1.70  0.  0.
172  1.71  0.  0.
173  1.72  0.  0.
174  1.73  0.  0.
175  1.74  0.  0.
176  1.75  0.  0.
177  1.76  0.  0.
178  1.77  0.  0.
179  1.78  0.  0.
180  1.79  0.  0.
181  1.80  0.  0.
182  1.81  0.  0.
183  1.82  0.  0.
184  1.83  0.  0.
185  1.84  0.  0.
186  1.85  0.  0.
187  1.86  0.  0.
188  1.87  0.  0.
189  1.88  0.  0.
190  1.89  0.  0.
191  1.90  0.  0.
192  1.91  0.  0.
193  1.92  0.  0.
194  1.93  0.  0.
195  1.94  0.  0.
196  1.95  0.  0.
197  1.96  0.  0.
198  1.97  0.  0.
199  1.98  0.  0.
200  1.99  0.  0.
201  2.00  0.  0.
202  2.01  0.  0.
203  2.02  0.  0.
204  2.03  0.  0.
205  2.04  0.  0.
206  2.05  0.  0.
207  2.06  0.  0.
208  2.07  0.  0.
209  2.08  0.  0.
210  2.09  0.  0.
211  2.10  0.  0.
212  2.11  0.  0.
213  2.12  0.  0.
214  2.13  0.  0.
215  2.14  0.  0.
216  2.15  0.  0.
217  2.16  0.  0.
218  2.17  0.  0.
219  2.18  0.  0.
220  2.19  0.  0.
221  2.20  0.  0.
222  2.21  0.  0.
223  2.22  0.  0.
224  2.23  0.  0.
225  2.24  0.  0.
226  2.25  0.  0.
227  2.26  0.  0.
228  2.27  0.  0.
229  2.28  0.  0.
230  2.29  0.  0.
231  2.30  0.  0.
232  2.31  0.  0.
233  2.32  0.  0.
234  2.33  0.  0.
235  2.34  0.  0.
236  2.35  0.  0.
237  2.36  0.  0.
238  2.37  0.  0.
239  2.38  0.  0.
240  2.39  0.  0.
241  2.40  0.  0.
242  2.41  0.  0.
243  2.42  0.  0.
244  2.43  0.  0.
245  2.44  0.  0.
246  2.45  0.  0.
247  2.46  0.  0.
248  2.47  0.  0.
249  2.48  0.  0.
250  2.49  0.  0.
251  2.50  0.  0.
252  2.51  0.  0.
253  2.52  0.  0.
254  2.53  0.  0.
255  2.54  0.  0.
256  2.55  0.  0.
257  2.56  0.  0.
258  2.57  0.  0.
259  2.58  0.  0.
260  2.59  0.  0.
261  2.60  0.  0.
262  2.61  0.  0.
263  2.62  0.  0.
264  2.63  0.  0.
265  2.64  0.  0.
266  2.65  0.  0.
267  2.66  0.  0.
268  2.67  0.  0.
269  2.68  0.  0.
270  2.69  0.  0.
271  2.70  0.  0.
272  2.71  0.  0.
273  2.72  0.  0.
274  2.73  0.  0.
275  2.74  0.  0.
276  2.75  0.  0.
277  2.76  0.  0.
278  2.77  0.  0.
279  2.78  0.  0.
280  2.79  0.  0.
281  2.80  0.  0.
282  2.81  0.  0.
283  2.82  0.  0.
284  2.83  0.  0.
285  2.84  0.  0.
286  2.85  0.  0.
287  2.86  0.  0.
288  2.87  0.  0.
289  2.88  0.  0.
290  2.89  0.  0.
291  2.90  0.  0.
292  2.91  0.  0.
293  2.92  0.  0.
294  2.93  0.  0.
295  2.94  0.  0.
296  2.95  0.  0.
297  2.96  0.  0.
298  2.97  0.  0.
299  2.98  0.  0.
300  2.99  0.  0.
301  3.00  0.  0.
302  3.01  0.  0.
303  3.02  0.  0.
304  3.03  0.  0.
305  3.04  0.  0.
306  3.05  0.  0.
307  3.06  0.  0.
308  3.07  0.  0.
309  3.08  0.  0.
310  3.09  0.  0.
311  3.10  0.  0.
312  3.11  0.  0.
313  3.12  0.  0.
314  3.13  0.  0.
315  3.14  0.  0.
316  3.15  0.  0.
317  3.16  0.  0.
318  3.17  0.  0.
319  3.18  0.  0.
320  3.19  0.  0.
321  3.20  0.  0.
322  3.21  0.  0.
323  3.22  0.  0.
324  3.23  0.  0.
325  3.24  0.  0.
326  3.25  0.  0.
327  3.26  0.  0.
328  3.27  0.  0.
329  3.28  0.  0.
330  3.29  0.  0.
331  3.30  0.  0.
332  3.31  0.  0.
333  3.32  0.  0.
334  3.33  0.  0.
335  3.34  0.  0.
336  3.35  0.  0.
337  3.36  0.  0.
338  3.37  0.  0.
339  3.38  0.  0.
340  3.39  0.  0.
341  3.40  0.  0.
342  3.41  0.  0.
343  3.42  0.  0.
344  3.43  0.  0.
345  3.44  0.  0.
346  3.45  0.  0.
347  3.46  0.  0.
348  3.47  0.  0.
349  3.48  0.  0.
350  3.49  0.  0.
351  3.50  0.  0.
352  3.51  0.  0.
353  3.52  0.  0.
354  3.53  0.  0.
355  3.54  0.  0.
356  3.55  0.  0.
357  3.56  0.  0.
358  3.57  0.  0.
359  3.58  0.  0.
360  3.59  0.  0.
361  3.60  0.  0.
362  3.61  0.  0.
363  3.62  0.  0.
364  3.63  0.  0.
365  3.64  0.  0.
366  3.65  0.  0.
367  3.66  0.  0.
368  3.67  0.  0.
369  3.68  0.  0.
370  3.69  0.  0.
371  3.70  0.  0.
372  3.71  0.  0.
373  3.72  0.  0.
374  3.73  0.  0.
375  3.74  0.  0.
376  3.75  0.  0.
377  3.76  0.  0.
378  3.77  0.  0.
379  3.78  0.  0.
380  3.79  0.  0.
381  3.80  0.  0.
382  3.81  0.  0.
383  3.82  0.  0.
384  3.83  0.  0.
385  3.84  0.  0.
386  3.85  0.  0.
387  3.86  0.  0.
388  3.87  0.  0.
389  3.88  0.  0.
390  3.89  0.  0.
391  3.90  0.  0.
392  3.91  0.  0.
393  3.92  0.  0.
394  3.93  0.  0.
395  3.94  0.  0.
396  3.95  0.  0.
397  3.96  0.  0.
398  3.97  0.  0.
399  3.98  0.  0.
400  3.99  0.  0.
401  4.00  0.  0.
402  4.01  0.  0.
403  4.02  0.  0.
404  4.03  0.  0.
405  4.04  0.  0.
406  4.05  0.  0.
407  4.06  0.  0.
408  4.07  0.  0.
409  4.08  0.  0.
410  4.09  0.  0.
411  4.10  0.  0.
412  4.11  0.  0.
413  4.12  0.  0.
414  4.13  0.  0.
415  4.14  0.  0.
416  4.15  0.  0.
417  4.16  0.  0.
418  4.17  0.  0.
419  4.18  0.  0.
420  4.19  0.  0.
421  4.20  0.  0.
422  4.21  0.  0.
423  4.22  0.  0.
424  4.23  0.  0.
425  4.24  0.  0.
426  4.25  0.  0.
427  4.26  0.  0.
428  4.27  0.  0.
429  4.28  0.  0.
430  4.29  0.  0.
431  4.30  0.  0.
432  4.31  0.  0.
433  4.32  0.  0.
434  4.33  0.  0.
435  4.34  0.  0.
436  4.35  0.  0.
437  4.36  0.  0.
438  4.37  0.  0.
439  4.38  0.  0.
440  4.39  0.  0.
441  4.40  0.  0.
442  4.41  0.  0.
443  4.42  0.  0.
444  4.43  0.  0.
445  4.44  0.  0.
446  4.45  0.  0.
447  4.46  0.  0.
448  4.47  0.  0.
449  4.48  0.  0.
450  4.49  0.  0.
451  4.50  0.  0.
452  4.51  0.  0.
453  4.52  0.  0.
454  4.53  0.  0.
455  4.54  0.  0.
456  4.55  0.  0.
457  4.56  0.  0.
458  4.57  0.  0.
459  4.58  0.  0.
460  4.59  0.  0.
461  4.60  0.  0.
462  4.61  0.  0.
463  4.62  0.  0.
464  4.63  0.  0.
465  4.64  0.  0.
466  4.65  0.  0.
467  4.66  0.  0.
468  4.67  0.  0.
469  4.68  0.  0.
470  4.69  0.  0.
471  4.70  0.  0.
472  4.71  0.  0.
473  4.72  0.  0.
474  4.73  0.  0.
475  4.74  0.  0.
476  4.75  0.  0.
477  4.76  0.  0.
478  4.77  0.  0.
479  4.78  0.  0.
480  4.79  0.  0.
481  4.80  0.  0.
482  4.81  0.  0.
483  4.82  0.  0.
484  4.83  0.  0.
485  4.84  0.  0.
486  4.85  0.  0.
487  4.86  0.  0.
488  4.87  0.  0.
489  4.88  0.  0.
490  4.89  0.  0.
491  4.90  0.  0.
492  4.91  0.  0.
493  4.92  0.  0.
494  4.93  0.  0.
495  4.94  0.  0.
496  4.95  0.  0.
497  4.96  0.  0.
498  4.97  0.  0.
499  4.98  0.  0.
500  4.99  0.  0.
501  5.00  0.  0.
502  5.01  0.  0.
503  5.02  0.  0.
504  5.03  0.  0.
505  5.04  0.  0.
506  5.05  0.  0.
507  5.06  0.  0.
508  5.07  0.  0.
509  5.08  0.  0.
510  5.09  0.  0.
511  5.10  0.  0.
512  5.11  0.  0.
513  5.12  0.  0.
514  5.13  0.  0.
515  5.14  0.  0.
516  5.15  0.  0.
517  5.16  0.  0.
518  5.17  0.  0.
519  5.18  0.  0.
520  5.19  0.  0.
521  5.20  0.  0.
522  5.21  0.  0.
523  5.22  0.  0.
524  5.23  0.  0.
525  5.24  0.  0.
526  5.25  0.  0.
527  5.26  0.  0.
528  5.27  0.  0.
529  5.28  0.  0.
530  5.29  0.  0.
531  5.30  0.  0.
532  5.31  0.  0.
533  5.32  0.  0.
534  5.33  0.  0.
535  5.34  0.  0.
536  5.35  0.  0.
537  5.36  0.  0.
538  5.37  0.  0.
539  5.38  0.  0.
540  5.39  0.  0.
541  5.40  0.  0.
542  5.41  0.  0.
543  5.42  0.  0.
544  5.43  0.  0.
545  5.44  0.  0.
546  5.45  0.  0.
547  5.46  0.  0.
548  5.47  0.  0.
549  5.48  0.  0.
550  5.49  0.  0.
551  5.50  0.  0.
552  5.51  0.  0.
553  5.52  0.  0.
554  5.53  0.  0.
555  5.54  0.  0.
556  5.55  0.  0.
557  5.56  0.  0.
558  5.57  0.  0.
559  5.58  0.  0.
560  5.59  0.  0.
561  5.60  0.  0.
562  5.61  0.  0.
563  5.62  0.  0.
564  5.63  0.  0.
565  5.64  0.  0.
566  5.65  0.  0.
567  5.66  0.  0.
568  5.67  0.  0.
569  5.68  0.  0.
570  5.69  0.  0.
571  5.70  0.  0.
572  5.71  0.  0.
573  5.72  0.  0.
574  5.73  0.  0.
575  5.74  0.  0.
576  5.75  0.  0.
577  5.76  0.  0.
578  5.77  0.  0.
579  5.78  0.  0.
580  5.79  0.  0.
581  5.80  0.  0.
582  5.81  0.  0.
583  5.82  0.  0.
584  5.83  0.  0.
585  5.84  0.  0.
586  5.85  0.  0.
587  5.86  0.  0.
588  5.87  0.  0.
589  5.88  0.  0.
590  5.89  0.  0.
591  5.90  0.  0.
592  5.91  0.  0.
593  5.92  0.  0.
594  5.93  0.  0.
595  5.94  0.  0.
596  5.95  0.  0.
597  5.96  0.  0.
598  5.97  0.  0.
599  5.98  0.  0.
600  5.99  0.  0.
1                         1.3437287828004E+01  1.1792093781890E+00
1  0.0000000000000E+00 -3.5147506016742E-09  1.4396181365062E-08
2  1.0000000000000E-02  1.7382880244864E-03 -7.5050978596498E-04
3  2.0000000000000E-02  6.9485022119455E-03 -3.0058458837675E-03
4  3.0000000000000E-02  1.5616635924647E-02 -6.7771289526244E-03
5  4.0000000000000E-02  2.7719157052629E-02 -1.2081903955289E-02
6  5.0000000000000E-02  4.3222734148765E-02 -1.8942687442387E-02
7  6.0000000000000E-02  6.2083868216552E-02 -2.7384995865743E-02
8  7.0000000000000E-02  8.4248444858325E-02 -3.7434915047924E-02
9  8.0000000000000E-02  1.0965122500635E-01 -4.9116285331373E-02
10  9.0000000000000E-02  1.3821529548259E-01 -6.2447589338053E-02
11  1.0000000000000E-01  1.6985150308115E-01 -7.7438639352184E-02
12  1.1000000000000E-01  2.0445789767249E-01 -9.4087168819345E-02
13  1.2000000000000E-01  2.4191921093721E-01 -1.1237543712396E-01
14  1.3000000000000E-01  2.8210639771561E-01 -1.3226695852666E-01
15  1.4000000000000E-01  3.2487626659098E-01 -1.5370346485141E-01
16  1.5000000000000E-01  3.7007122521216E-01 -1.7660220722518E-01
17  1.6000000000000E-01  4.1751916402765E-01 -2.0085369498397E-01
18  1.7000000000000E-01  4.6703349958867E-01 -2.2631995993712E-01
19  1.8000000000000E-01  5.1841339544103E-01 -2.5283342176718E-01
20  1.9000000000000E-01  5.7144417494057E-01 -2.8019641574196E-01
21  2.0000000000000E-01  6.2589793618162E-01 -3.0818142749268E-01
22  2.1000000000000E-01  6.8153437472519E-01 -3.3653206178116E-01
23  2.2000000000000E-01  7.3810181506332E-01 -3.6496475339300E-01
24  2.3000000000000E-01  7.9533844687657E-01 -3.9317120903245E-01
25  2.4000000000000E-01  8.5297375725504E-01 -4.2082154985453E-01
26  2.5000000000000E-01  9.1073014528221E-01 -4.4756810555059E-01
27  2.6000000000000E-01  9.6832470084695E-01 -4.7304979319364E-01
28  2.7000000000000E-01  1.0254711253675E+00 -4.9689699781766E-01
29  2.8000000000000E-01  1.0818817683906E+00 -5.1873685738435E-01
30  2.9000000000000E-01  1.1372697508646E+00 -5.3819884276774E-01
31  3.0000000000000E-01  1.1913511433645E+00 -5.5492051399694E-01
32  3.1000000000000E-01  1.2438471657327E+00 -5.6855332750410E-01
33  3.2000000000000E-01  1.2944863735458E+00 -5.7876836572799E-01
34  3.3000000000000E-01  1.3430067965595E+00 -5.8526186023848E-01
35  3.4000000000000E-01  1.3891579948233E+00 -5.8776038261381E-01
36  3.5000000000000E-01  1.4327029995023E+00 -5.8602558357211E-01
37  3.6000000000000E-01  1.4734201075476E+00 -5.7985837020685E-01
38  3.7000000000000E-01  1.5111045021933E+00 -5.6910242339061E-01
39  3.8000000000000E-01  1.5455696747419E+00 -5.5364697221365E-01
40  3.9000000000000E-01  1.5766486271633E+00 -5.3342875935735E-01
41  4.0000000000000E-01  1.6041948395683E+00 -5.0843315015763E-01
42  4.1000000000000E-01  1.6280829915210E+00 -4.7869435832486E-01
43  4.2000000000000E-01  1.6482094313018E+00 -4.4429478235188E-01
44  4.3000000000000E-01  1.6644923925023E+00 -4.0536346803137E-01
45  4.4000000000000E-01  1.6768719625838E+00 -3.6207373367305E-01
46  4.5000000000000E-01  1.6853098131478E+00 -3.1464001501732E-01
47  4.6000000000000E-01  1.6897887065037E+00 -2.6331400595375E-01
48  4.7000000000000E-01  1.6903117975643E+00 -2.0838018846912E-01
49  4.8000000000000E-01  1.6869017540421E+00 -1.5015086030700E-01
50  4.9000000000000E-01  1.6795997212475E+00 -8.8960781210697E-02
51  5.0000000000000E-01  1.6684641604303E+00 -2.5161567998658E-02
52  5.1000000000000E-01  1.6535695914850E+00  4.0884025186666E-02
53  5.2000000000000E-01  1.6350052719026E+00  1.0880780249810E-01
54  5.3000000000000E-01  1.6128738440860E+00  1.7824165987481E-01
55  5.4000000000000E-01  1.5872899825228E+00  2.4882282296129E-01
56  5.5000000000000E-01  1.5583790708663E+00  3.2019866407444E-01
57  5.6000000000000E-01  1.5262759367294E+00  3.9203098424236E-01
58  5.7000000000000E-01  1.4911236690236E+00  4.6399966082173E-01
59  5.8000000000000E-01  1.4530725390380E+00  5.3580557842143E-01
60  5.9000000000000E-01  1.4122790422580E+00  6.0717278039939E-01
61  6.0000000000000E-01  1.3689050732781E+00  6.7784979957510E-01
62  6.1000000000000E-01  1.3231172411920E+00  7.4761014947408E-01
63  6.2000000000000E-01  1.2750863276810E+00  8.1625198081257E-01
64  6.3000000000000E-01  1.2249868848124E+00  8.8359693143864E-01
65  6.4000000000000E-01  1.1729969644424E+00  9.4948822094879E-01
66  6.5000000000000E-01  1.1192979662402E+00  1.0137880630855E+00
67  6.6000000000000E-01  1.0640745868542E+00  1.0763744891981E+00
68  6.7000000000000E-01  1.0075148487428E+00  1.1371376939556E+00
69  6.8000000000000E-01  9.4981018383432E-01  1.1959760296310E+00
70  6.9000000000000E-01  8.9115554454521E-01  1.2527917871813E+00
71  7.0000000000000E-01  8.3174951286869E-01  1.3074869106666E+00
72  7.1000000000000E-01  7.7179437731826E-01  1.3599587959925E+00
73  7.2000000000000E-01  7.1149614750144E-01  1.4100963253470E+00
74  7.3000000000000E-01  6.5106447704110E-01  1.4577762849408E+00
75  7.4000000000000E-01  5.9071246744075E-01  1.5028603057827E+00
76  7.5000000000000E-01  5.3065632827915E-01  1.5451924553427E+00
77  7.6000000000000E-01  4.7111487276079E-01  1.5845975923200E+00
78  7.7000000000000E-01  4.1230883206290E-01  1.6208805776702E+00
79  7.8000000000000E-01  3.5445997700601E-01  1.6538264129828E+00
80  7.9000000000000E-01  2.9779004120892E-01  1.6832013527597E+00
81  8.0000000000000E-01  2.4251944593462E-01  1.7087550107024E+00
82  8.1000000000000E-01  1.8886583313478E-01  1.7302234524299E+00
83  8.2000000000000E-01  1.3704241959626E-01  1.7473332388071E+00
84  8.3000000000000E-01  8.7256191411911E-02  1.7598063559857E+00
85  8.4000000000000E-01  3.9705964069630E-02  1.7673659410771E+00
86  8.5000000000000E-01 -5.4196608923488E-03  1.7697426868151E+00
87  8.6000000000000E-01 -4.7944406641222E-02  1.7666817853129E+00
88  8.7000000000000E-01 -8.7706458851044E-02  1.7579502507367E+00
89  8.8000000000000E-01 -1.2456058670932E-01  1.7433444439854E+00
90  8.9000000000000E-01 -1.5838020079934E-01  1.7226976098040E+00
91  9.0000000000000E-01 -1.8905930012084E-01  1.6958872285813E+00
92  9.1000000000000E-01 -2.1651426025568E-01  1.6628419817084E+00
93  9.2000000000000E-01 -2.4068541562350E-01  1.6235481310068E+00
94  9.3000000000000E-01 -2.6153839091970E-01  1.5780551194545E+00
95  9.4000000000000E-01 -2.7906514016768E-01  1.5264802121984E+00
96  9.5000000000000E-01 -2.9328465630336E-01  1.4690120134779E+00
97  9.6000000000000E-01 -3.0424331976630E-01  1.4059127162951E+00
98  9.7000000000000E-01 -3.1201486109367E-01  1.3375189670450E+00
99  9.8000000000000E-01 -3.1669991987178E-01  1.2642412563332E+00
100  9.9000000000000E-01 -3.1842519043806E-01  1.1865617792457E+00
101  1.0000000000000E+00 -3.1734215327100E-01  1.1050307426563E+00
102  1.0100000000000E+00 -3.1362539986436E-01  1.0202611330163E+00
103  1.0200000000000E+00 -3.0747056785612E-01  9.3292199460782E-01
104  1.0300000000000E+00 -2.9909191205349E-01  8.4373030459709E-01
105  1.0400000000000E+00 -2.8871954555438E-01  7.5344156649668E-01
106  1.0500000000000E+00 -2.7659639321128E-01  6.6283927703107E-01
107  1.0600000000000E+00 -2.6297490699192E-01  5.7272345194542E-01
108  1.0700000000000E+00 -2.4811359919798E-01  4.8389842332494E-01
109  1.0800000000000E+00 -2.3227345482203E-01  3.9716014372231E-01
110  1.0900000000000E+00 -2.1571428840374E-01  3.1328325017918E-01
111  1.1000000000000E+00 -1.9869111348158E-01  2.3300815362748E-01
112  1.1100000000000E+00 -1.8145059401175E-01  1.5702842566822E-01
113  1.1200000000000E+00 -1.6422764689832E-01  8.5978755156480E-02
114  1.1300000000000E+00 -1.4724226301294E-01  2.0423741204938E-02
115  1.1400000000000E+00 -1.3069661078607E-01 -3.9152222835439E-02
116  1.1500000000000E+00 -1.1477248168035E-01 -9.2353737944489E-02
117  1.1600000000000E+00 -9.9629130668956E-02 -1.3888164797225E-01
118  1.1700000000000E+00 -8.5401557389986E-02 -1.7853856467321E-01
119  1.1800000000000E+00 -7.2199265011602E-02 -2.1123251975373E-01
120  1.1900000000000E+00 -6.0105524303254E-02 -2.3697863221520E-01
121  1.2000000000000E+00 -4.9177160009345E-02 -2.5589872062613E-01
122  1.2100000000000E+00 -3.9444865781068E-02 -2.6821883321702E-01
123  1.2200000000000E+00 -3.0914042664551E-02 -2.7426471375031E-01
124  1.2300000000000E+00 -2.3566144889334E-02 -2.7445526627921E-01
125  1.2400000000000E+00 -1.7360505615894E-02 -2.6929412649434E-01
126  1.2500000000000E+00 -1.2236604604448E-02 -2.5935949046942E-01
127  1.2600000000000E+00 -8.1167298229993E-03 -2.4529239178108E-01
128  1.2700000000000E+00 -4.9089759058122E-03 -2.2778365483392E-01
129  1.2800000000000E+00 -2.5105144109519E-03 -2.0755978452356E-01
130  1.2900000000000E+00 -8.1106418621970E-04 -1.8536807937851E-01
131  1.3000000000000E+00  3.0351505721818E-04 -1.6196127659972E-01
132  1.3100000000000E+00  9.4759554874883E-04 -1.3808208083552E-01
133  1.3200000000000E+00  1.2321070191385E-03 -1.1444760662960E-01
134  1.3300000000000E+00  1.2613360173335E-03 -9.1735436407756E-02
135  1.3400000000000E+00  1.1219076792630E-03 -7.0545246593429E-02
136  1.3500000000000E+00  8.7191985965928E-04 -5.1359945922061E-02
137  1.3600000000000E+00  5.8945092229920E-04 -3.4696356575108E-02
138  1.3700000000000E+00  3.3504387318774E-04 -2.0986290546331E-02
139  1.3800000000000E+00  1.4686154298689E-04 -1.0559458314348E-02
140  1.3900000000000E+00  3.9207118887220E-05 -3.6201446551828E-03
141  1.4000000000000E+00  2.4089124892445E-06 -3.7291826958752E-04
142  1.4100000000000E+00 -1.5993195013386E-07  4.0547285569432E-05
143  1.4200000000000E+00  3.9127690091148E-08 -6.4662323119574E-06
144  1.43 -0. -0.
145  1.44  0.  0.
146  1.45  0.  0.
147  1.46  0.  0.
148  1.47  0.  0.
149  1.48  0.  0.
150  1.49  0.  0.
151  1.50  0.  0.
152  1.51  0.  0.
153  1.52  0.  0.
154  1.53  0.  0.
155  1.54  0.  0.
156  1.55  0.  0.
157  1.56  0.  0.
158  1.57  0.  0.
159  1.58  0.  0.
160  1.59  0.  0.
161  1.60  0.  0.
162  1.61  0.  0.
163  1.62  0.  0.
164  1.63  0.  0.
165  1.64  0.  0.
166  1.65  0.  0.
167  1.66  0.  0.
168  1.67  0.  0.
169  1.68  0.  0.
170  1.69  0.  0.
171  1.70  0.  0.
172  1.71  0.  0.
173  1.72  0.  0.
174  1.73  0.  0.
175  1.74  0.  0.
176  1.75  0.  0.
177  1.76  0.  0.
178  1.77  0.  0.
179  1.78  0.  0.
180  1.79  0.  0.
181  1.80  0.  0.
182  1.81  0.  0.
183  1.82  0.  0.
184  1.83  0.  0.
185  1.84  0.  0.
186  1.85  0.  0.
187  1.86  0.  0.
188  1.87  0.  0.
189  1.88  0.  0.
190  1.89  0.  0.
191  1.90  0.  0.
192  1.91  0.  0.
193  1.92  0.  0.
194  1.93  0.  0.
195  1.94  0.  0.
196  1.95  0.  0.
197  1.96  0.  0.
198  1.97  0.  0.
199  1.98  0.  0.
200  1.99  0.  0.
201  2.00  0.  0.
202  2.01  0.  0.
203  2.02  0.  0.
204  2.03  0.  0.
205  2.04  0.  0.
206  2.05  0.  0.
207  2.06  0.  0.
208  2.07  0.  0.
209  2.08  0.  0.
210  2.09  0.  0.
211  2.10  0.  0.
212  2.11  0.  0.
213  2.12  0.  0.
214  2.13  0.  0.
215  2.14  0.  0.
216  2.15  0.  0.
217  2.16  0.  0.
218  2.17  0.  0.
219  2.18  0.  0.
220  2.19  0.  0.
221  2.20  0.  0.
222  2.21  0.  0.
223  2.22  0.  0.
224  2.23  0.  0.
225  2.24  0.  0.
226  2.25  0.  0.
227  2.26  0.  0.
228  2.27  0.  0.
229  2.28  0.  0.
230  2.29  0.  0.
231  2.30  0.  0.
232  2.31  0.  0.
233  2.32  0.  0.
234  2.33  0.  0.
235  2.34  0.  0.
236  2.35  0.  0.
237  2.36  0.  0.
238  2.37  0.  0.
239  2.38  0.  0.
240  2.39  0.  0.
241  2.40  0.  0.
242  2.41  0.  0.
243  2.42  0.  0.
244  2.43  0.  0.
245  2.44  0.  0.
246  2.45  0.  0.
247  2.46  0.  0.
248  2.47  0.  0.
249  2.48  0.  0.
250  2.49  0.  0.
251  2.50  0.  0.
252  2.51  0.  0.
253  2.52  0.  0.
254  2.53  0.  0.
255  2.54  0.  0.
256  2.55  0.  0.
257  2.56  0.  0.
258  2.57  0.  0.
259  2.58  0.  0.
260  2.59  0.  0.
261  2.60  0.  0.
262  2.61  0.  0.
263  2.62  0.  0.
264  2.63  0.  0.
265  2.64  0.  0.
266  2.65  0.  0.
267  2.66  0.  0.
268  2.67  0.  0.
269  2.68  0.  0.
270  2.69  0.  0.
271  2.70  0.  0.
272  2.71  0.  0.
273  2.72  0.  0.
274  2.73  0.  0.
275  2.74  0.  0.