Lv    ONCVPSP-4.0.1  r_core=   1.35469   1.35469   1.35469   1.50870
116.0000     24.0000      230612    zatom,zion,pspd
8      11   3     4   600     0    pspcod,pspxc,lmax,lloc,mmax,r2well
5.99000000  5.00000000  0.00000000    rchrg fchrg qchrg
2     2     2     1     0    nproj
1     1           extension_switch
0                         3.6978407152207E+01  3.2209051062948E+00
1  0.0000000000000E+00  6.0200540108468E-09 -1.3271128099235E-08
2  1.0000000000000E-02  6.9578761691087E-02  1.7849330900846E-02
3  2.0000000000000E-02  1.3916741194642E-01  3.5360717883691E-02
4  3.0000000000000E-02  2.0877248197607E-01  5.2204038059371E-02
5  4.0000000000000E-02  2.7839386335724E-01  6.8064646745450E-02
6  5.0000000000000E-02  3.4802167431670E-01  8.2650710448832E-02
7  6.0000000000000E-02  4.1763334491527E-01  9.5700062245412E-02
8  7.0000000000000E-02  4.8719098684250E-01  1.0698643636445E-01
9  8.0000000000000E-02  5.5663910750974E-01  1.1632495205641E-01
10  9.0000000000000E-02  6.2590272085213E-01  1.2357673286035E-01
11  1.0000000000000E-01  6.9488589887147E-01  1.2865256584008E-01
12  1.1000000000000E-01  7.6347079865368E-01  1.3151552582458E-01
13  1.2000000000000E-01  8.3151718957672E-01  1.3218251172142E-01
14  1.3000000000000E-01  8.9886249490345E-01  1.3072466508942E-01
15  1.4000000000000E-01  9.6532235115614E-01  1.2726666485566E-01
16  1.5000000000000E-01  1.0306916778268E+00  1.2198491582373E-01
17  1.6000000000000E-01  1.0947462393248E+00  1.1510467192568E-01
18  1.7000000000000E-01  1.1572446708280E+00  1.0689615751237E-01
19  1.8000000000000E-01  1.2179309301068E+00  9.7669770867164E-02
20  1.9000000000000E-01  1.2765371286363E+00  8.7770473111354E-02
21  2.0000000000000E-01  1.3327866875880E+00  7.7571482334693E-02
22  2.1000000000000E-01  1.3863977577635E+00  6.7467406767393E-02
23  2.2000000000000E-01  1.4370868373332E+00  5.7866961811005E-02
24  2.3000000000000E-01  1.4845725174849E+00  4.9185423528753E-02
25  2.4000000000000E-01  1.5285792838477E+00  4.1836975596136E-02
26  2.5000000000000E-01  1.5688413008665E+00  3.6227107644123E-02
27  2.6000000000000E-01  1.6051061071921E+00  3.2745220378175E-02
28  2.7000000000000E-01  1.6371381525670E+00  3.1757586893693E-02
29  2.8000000000000E-01  1.6647221105929E+00  3.3600810379600E-02
30  2.9000000000000E-01  1.6876659070444E+00  3.8575906121329E-02
31  3.0000000000000E-01  1.7058034099412E+00  4.6943120673435E-02
32  3.1000000000000E-01  1.7189967352361E+00  5.8917583618150E-02
33  3.2000000000000E-01  1.7271381305543E+00  7.4665867865162E-02
34  3.3000000000000E-01  1.7301514087239E+00  9.4303513433016E-02
35  3.4000000000000E-01  1.7279929126559E+00  1.1789354756737E-01
36  3.5000000000000E-01  1.7206520032405E+00  1.4544601141128E-01
37  3.6000000000000E-01  1.7081510720834E+00  1.7691848077155E-01
38  3.7000000000000E-01  1.6905450908932E+00  2.1221754634957E-01
39  3.8000000000000E-01  1.6679207188995E+00  2.5120119764071E-01
40  3.9000000000000E-01  1.6403949986309E+00  2.9368203504665E-01
41  4.0000000000000E-01  1.6081136784934E+00  3.3943121704784E-01
42  4.1000000000000E-01  1.5712492076872E+00  3.8818303396150E-01
43  4.2000000000000E-01  1.5299984549157E+00  4.3963998722329E-01
44  4.3000000000000E-01  1.4845802069488E+00  4.9347824357114E-01
45  4.4000000000000E-01  1.4352325062932E+00  5.4935332720116E-01
46  4.5000000000000E-01  1.3822098889358E+00  6.0690591005587E-01
47  4.6000000000000E-01  1.3257805833225E+00  6.6576756095612E-01
48  4.7000000000000E-01  1.2662237304221E+00  7.2556631828849E-01
49  4.8000000000000E-01  1.2038266819414E+00  7.8593195830286E-01
50  4.9000000000000E-01  1.1388824295831E+00  8.4650084158534E-01
51  5.0000000000000E-01  1.0716872127749E+00  9.0692023368445E-01
52  5.1000000000000E-01  1.0025383457002E+00  9.6685201185830E-01
53  5.2000000000000E-01  9.3173229688636E-01  1.0259756880764E+00
54  5.3000000000000E-01  8.5956304626202E-01  1.0839906983043E+00
55  5.4000000000000E-01  7.8632073568717E-01  1.1406179292228E+00
56  5.5000000000000E-01  7.1229061972589E-01  1.1956004753563E+00
57  5.6000000000000E-01  6.3775231410739E-01  1.2487036415559E+00
58  5.7000000000000E-01  5.6297933015252E-01  1.2997142273373E+00
59  5.8000000000000E-01  4.8823887467200E-01  1.3484391501643E+00
60  5.9000000000000E-01  4.1379188670151E-01  1.3947034838494E+00
61  6.0000000000000E-01  3.3989327514842E-01  1.4383480053189E+00
62  6.1000000000000E-01  2.6679231518540E-01  1.4792263575941E+00
63  6.2000000000000E-01  1.9473315621163E-01  1.5172019485761E+00
64  6.3000000000000E-01  1.2395539056091E-01  1.5521447137486E+00
65  6.4000000000000E-01  5.4694629978063E-02  1.5839278759743E+00
66  6.5000000000000E-01 -1.2816963711193E-02  1.6124248369797E+00
67  6.6000000000000E-01 -7.8350246310265E-02  1.6375063328130E+00
68  6.7000000000000E-01 -1.4167880731911E-01  1.6590379795262E+00
69  6.8000000000000E-01 -2.0257888019014E-01  1.6768783256746E+00
70  6.9000000000000E-01 -2.6082948699153E-01  1.6908775151385E+00
71  7.0000000000000E-01 -3.1621285074325E-01  1.7008766475299E+00
72  7.1000000000000E-01 -3.6851510055603E-01  1.7067079044219E+00
73  7.2000000000000E-01 -4.1752728558043E-01  1.7081954882688E+00
74  7.3000000000000E-01 -4.6304670388433E-01  1.7051573976747E+00
75  7.4000000000000E-01 -5.0487854197067E-01  1.6974080381951E+00
76  7.5000000000000E-01 -5.4283780998443E-01  1.6847616426981E+00
77  7.6000000000000E-01 -5.7675154701852E-01  1.6670364501392E+00
78  7.7000000000000E-01 -6.0646126059273E-01  1.6440595670264E+00
79  7.8000000000000E-01 -6.3182555462808E-01  1.6156724125413E+00
80  7.9000000000000E-01 -6.5272289134412E-01  1.5817366268522E+00
81  8.0000000000000E-01 -6.6905442472381E-01  1.5421403031949E+00
82  8.1000000000000E-01 -6.8074683675565E-01  1.4968043883617E+00
83  8.2000000000000E-01 -6.8775510278004E-01  1.4456890837947E+00
84  8.3000000000000E-01 -6.9006510911086E-01  1.3888000709393E+00
85  8.4000000000000E-01 -6.8769604480546E-01  1.3261943801933E+00
86  8.5000000000000E-01 -6.8070249010990E-01  1.2579857228969E+00
87  8.6000000000000E-01 -6.6917612675318E-01  1.1843491104835E+00
88  8.7000000000000E-01 -6.5324699990504E-01  1.1055245941370E+00
89  8.8000000000000E-01 -6.3308426819058E-01  1.0218199719922E+00
90  8.9000000000000E-01 -6.0889638657568E-01  9.3361232885042E-01
91  9.0000000000000E-01 -5.8093067704713E-01  8.4134829523890E-01
92  9.1000000000000E-01 -5.4947225362336E-01  7.4554293800621E-01
93  9.2000000000000E-01 -5.1484228110898E-01  6.4677722299325E-01
94  9.3000000000000E-01 -4.7739556088110E-01  5.4569402105543E-01
95  9.4000000000000E-01 -4.3751745156864E-01  4.4299266116824E-01
96  9.5000000000000E-01 -3.9562014743350E-01  3.3942206780079E-01
97  9.6000000000000E-01 -3.5213835224342E-01  2.3577255342421E-01
98  9.7000000000000E-01 -3.0752440109415E-01  1.3286637015433E-01
99  9.8000000000000E-01 -2.6224289664267E-01  3.1547156320336E-02
100  9.9000000000000E-01 -2.1676493920991E-01 -6.7331556573686E-02
101  1.0000000000000E+00 -1.7156204187489E-01 -1.6291858420882E-01
102  1.0100000000000E+00 -1.2709983171199E-01 -2.5437786156791E-01
103  1.0200000000000E+00 -8.3831646445932E-02 -3.4090151212745E-01
104  1.0300000000000E+00 -4.2192141777679E-02 -4.2172296503481E-01
105  1.0400000000000E+00 -2.5910282882711E-03 -4.9612986189940E-01
106  1.0500000000000E+00  3.4592941991455E-02 -5.6347649101533E-01
107  1.0600000000000E+00  6.9017620631654E-02 -6.2319548869667E-01
108  1.0700000000000E+00  1.0038262471542E-01 -6.7480855501191E-01
109  1.0800000000000E+00  1.2843390738035E-01 -7.1793594455339E-01
110  1.0900000000000E+00  1.5296763772138E-01 -7.5230451168099E-01
111  1.1000000000000E+00  1.7383330212916E-01 -7.7775411381824E-01
112  1.1100000000000E+00  1.9093595254187E-01 -7.9424220516728E-01
113  1.1200000000000E+00  2.0423754243613E-01 -8.0184648638604E-01
114  1.1300000000000E+00  2.1375730824890E-01 -8.0076551240875E-01
115  1.1400000000000E+00  2.1957117208696E-01 -7.9131720019944E-01
116  1.1500000000000E+00  2.2181016056896E-01 -7.7393521976321E-01
117  1.1600000000000E+00  2.2065785416861E-01 -7.4916329455847E-01
118  1.1700000000000E+00  2.1634690095232E-01 -7.1764748037606E-01
119  1.1800000000000E+00  2.0915464787495E-01 -6.8012653420355E-01
120  1.1900000000000E+00  1.9939796117890E-01 -6.3742052517054E-01
121  1.2000000000000E+00  1.8742732480981E-01 -5.9041787808906E-01
122  1.2100000000000E+00  1.7362032141563E-01 -5.4006107480279E-01
123  1.2200000000000E+00  1.5837461439082E-01 -4.8733126943708E-01
124  1.2300000000000E+00  1.4210056100469E-01 -4.3323209945064E-01
125  1.2400000000000E+00  1.2521359577934E-01 -3.7877299482624E-01
126  1.2500000000000E+00  1.0812652971089E-01 -3.2495230224870E-01
127  1.2600000000000E+00  9.1241914456095E-02 -2.7274054924322E-01
128  1.2700000000000E+00  7.4944580275569E-02 -2.2306408661182E-01
129  1.2800000000000E+00  5.9594802576750E-02 -1.7679008845840E-01
130  1.2900000000000E+00  4.5515631329983E-02 -1.3469893091404E-01
131  1.3000000000000E+00  3.2941751766705E-02 -9.7372127568690E-02
132  1.3100000000000E+00  2.2138233097944E-02 -6.5450226655376E-02
133  1.3200000000000E+00  1.3342865964653E-02 -3.9508963064202E-02
134  1.3300000000000E+00  6.7191926767685E-03 -1.9954897747271E-02
135  1.3400000000000E+00  2.3452875438341E-03 -6.9958052931316E-03
136  1.3500000000000E+00  2.6345129322172E-04 -7.9066972287000E-04
137  1.3600000000000E+00 -2.4536968274079E-05  7.3954823126152E-05
138  1.3700000000000E+00  3.3625043623330E-06 -1.0105051356931E-05
139  1.38 -0.  0.
140  1.39  0.  0.
141  1.40  0.  0.
142  1.41  0.  0.
143  1.42  0.  0.
144  1.43  0.  0.
145  1.44  0.  0.
146  1.45  0.  0.
147  1.46  0.  0.
148  1.47  0.  0.
149  1.48  0.  0.
150  1.49  0.  0.
151  1.50  0.  0.
152  1.51  0.  0.
153  1.52  0.  0.
154  1.53  0.  0.
155  1.54  0.  0.
156  1.55  0.  0.
157  1.56  0.  0.
158  1.57  0.  0.
159  1.58  0.  0.
160  1.59  0.  0.
161  1.60  0.  0.
162  1.61  0.  0.
163  1.62  0.  0.
164  1.63  0.  0.
165  1.64  0.  0.
166  1.65  0.  0.
167  1.66  0.  0.
168  1.67  0.  0.
169  1.68  0.  0.
170  1.69  0.  0.
171  1.70  0.  0.
172  1.71  0.  0.
173  1.72  0.  0.
174  1.73  0.  0.
175  1.74  0.  0.
176  1.75  0.  0.
177  1.76  0.  0.
178  1.77  0.  0.
179  1.78  0.  0.
180  1.79  0.  0.
181  1.80  0.  0.
182  1.81  0.  0.
183  1.82  0.  0.
184  1.83  0.  0.
185  1.84  0.  0.
186  1.85  0.  0.
187  1.86  0.  0.
188  1.87  0.  0.
189  1.88  0.  0.
190  1.89  0.  0.
191  1.90  0.  0.
192  1.91  0.  0.
193  1.92  0.  0.
194  1.93  0.  0.
195  1.94  0.  0.
196  1.95  0.  0.
197  1.96  0.  0.
198  1.97  0.  0.
199  1.98  0.  0.
200  1.99  0.  0.
201  2.00  0.  0.
202  2.01  0.  0.
203  2.02  0.  0.
204  2.03  0.  0.
205  2.04  0.  0.
206  2.05  0.  0.
207  2.06  0.  0.
208  2.07  0.  0.
209  2.08  0.  0.
210  2.09  0.  0.
211  2.10  0.  0.
212  2.11  0.  0.
213  2.12  0.  0.
214  2.13  0.  0.
215  2.14  0.  0.
216  2.15  0.  0.
217  2.16  0.  0.
218  2.17  0.  0.
219  2.18  0.  0.
220  2.19  0.  0.
221  2.20  0.  0.
222  2.21  0.  0.
223  2.22  0.  0.
224  2.23  0.  0.
225  2.24  0.  0.
226  2.25  0.  0.
227  2.26  0.  0.
228  2.27  0.  0.
229  2.28  0.  0.
230  2.29  0.  0.
231  2.30  0.  0.
232  2.31  0.  0.
233  2.32  0.  0.
234  2.33  0.  0.
235  2.34  0.  0.
236  2.35  0.  0.
237  2.36  0.  0.
238  2.37  0.  0.
239  2.38  0.  0.
240  2.39  0.  0.
241  2.40  0.  0.
242  2.41  0.  0.
243  2.42  0.  0.
244  2.43  0.  0.
245  2.44  0.  0.
246  2.45  0.  0.
247  2.46  0.  0.
248  2.47  0.  0.
249  2.48  0.  0.
250  2.49  0.  0.
251  2.50  0.  0.
252  2.51  0.  0.
253  2.52  0.  0.
254  2.53  0.  0.
255  2.54  0.  0.
256  2.55  0.  0.
257  2.56  0.  0.
258  2.57  0.  0.
259  2.58  0.  0.
260  2.59  0.  0.
261  2.60  0.  0.
262  2.61  0.  0.
263  2.62  0.  0.
264  2.63  0.  0.
265  2.64  0.  0.
266  2.65  0.  0.
267  2.66  0.  0.
268  2.67  0.  0.
269  2.68  0.  0.
270  2.69  0.  0.
271  2.70  0.  0.
272  2.71  0.  0.
273  2.72  0.  0.
274  2.73  0.  0.
275  2.74  0.  0.
276  2.75  0.  0.
277  2.76  0.  0.
278  2.77  0.  0.
279  2.78  0.  0.
280  2.79  0.  0.
281  2.80  0.  0.
282  2.81  0.  0.
283  2.82  0.  0.
284  2.83  0.  0.
285  2.84  0.  0.
286  2.85  0.  0.
287  2.86  0.  0.
288  2.87  0.  0.
289  2.88  0.  0.
290  2.89  0.  0.
291  2.90  0.  0.
292  2.91  0.  0.
293  2.92  0.  0.
294  2.93  0.  0.
295  2.94  0.  0.
296  2.95  0.  0.
297  2.96  0.  0.
298  2.97  0.  0.
299  2.98  0.  0.
300  2.99  0.  0.
301  3.00  0.  0.
302  3.01  0.  0.
303  3.02  0.  0.
304  3.03  0.  0.
305  3.04  0.  0.
306  3.05  0.  0.
307  3.06  0.  0.
308  3.07  0.  0.
309  3.08  0.  0.
310  3.09  0.  0.
311  3.10  0.  0.
312  3.11  0.  0.
313  3.12  0.  0.
314  3.13  0.  0.
315  3.14  0.  0.
316  3.15  0.  0.
317  3.16  0.  0.
318  3.17  0.  0.
319  3.18  0.  0.
320  3.19  0.  0.
321  3.20  0.  0.
322  3.21  0.  0.
323  3.22  0.  0.
324  3.23  0.  0.
325  3.24  0.  0.
326  3.25  0.  0.
327  3.26  0.  0.
328  3.27  0.  0.
329  3.28  0.  0.
330  3.29  0.  0.
331  3.30  0.  0.
332  3.31  0.  0.
333  3.32  0.  0.
334  3.33  0.  0.
335  3.34  0.  0.
336  3.35  0.  0.
337  3.36  0.  0.
338  3.37  0.  0.
339  3.38  0.  0.
340  3.39  0.  0.
341  3.40  0.  0.
342  3.41  0.  0.
343  3.42  0.  0.
344  3.43  0.  0.
345  3.44  0.  0.
346  3.45  0.  0.
347  3.46  0.  0.
348  3.47  0.  0.
349  3.48  0.  0.
350  3.49  0.  0.
351  3.50  0.  0.
352  3.51  0.  0.
353  3.52  0.  0.
354  3.53  0.  0.
355  3.54  0.  0.
356  3.55  0.  0.
357  3.56  0.  0.
358  3.57  0.  0.
359  3.58  0.  0.
360  3.59  0.  0.
361  3.60  0.  0.
362  3.61  0.  0.
363  3.62  0.  0.
364  3.63  0.  0.
365  3.64  0.  0.
366  3.65  0.  0.
367  3.66  0.  0.
368  3.67  0.  0.
369  3.68  0.  0.
370  3.69  0.  0.
371  3.70  0.  0.
372  3.71  0.  0.
373  3.72  0.  0.
374  3.73  0.  0.
375  3.74  0.  0.
376  3.75  0.  0.
377  3.76  0.  0.
378  3.77  0.  0.
379  3.78  0.  0.
380  3.79  0.  0.
381  3.80  0.  0.
382  3.81  0.  0.
383  3.82  0.  0.
384  3.83  0.  0.
385  3.84  0.  0.
386  3.85  0.  0.
387  3.86  0.  0.
388  3.87  0.  0.
389  3.88  0.  0.
390  3.89  0.  0.
391  3.90  0.  0.
392  3.91  0.  0.
393  3.92  0.  0.
394  3.93  0.  0.
395  3.94  0.  0.
396  3.95  0.  0.
397  3.96  0.  0.
398  3.97  0.  0.
399  3.98  0.  0.
400  3.99  0.  0.
401  4.00  0.  0.
402  4.01  0.  0.
403  4.02  0.  0.
404  4.03  0.  0.
405  4.04  0.  0.
406  4.05  0.  0.
407  4.06  0.  0.
408  4.07  0.  0.
409  4.08  0.  0.
410  4.09  0.  0.
411  4.10  0.  0.
412  4.11  0.  0.
413  4.12  0.  0.
414  4.13  0.  0.
415  4.14  0.  0.
416  4.15  0.  0.
417  4.16  0.  0.
418  4.17  0.  0.
419  4.18  0.  0.
420  4.19  0.  0.
421  4.20  0.  0.
422  4.21  0.  0.
423  4.22  0.  0.
424  4.23  0.  0.
425  4.24  0.  0.
426  4.25  0.  0.
427  4.26  0.  0.
428  4.27  0.  0.
429  4.28  0.  0.
430  4.29  0.  0.
431  4.30  0.  0.
432  4.31  0.  0.
433  4.32  0.  0.
434  4.33  0.  0.
435  4.34  0.  0.
436  4.35  0.  0.
437  4.36  0.  0.
438  4.37  0.  0.
439  4.38  0.  0.
440  4.39  0.  0.
441  4.40  0.  0.
442  4.41  0.  0.
443  4.42  0.  0.
444  4.43  0.  0.
445  4.44  0.  0.
446  4.45  0.  0.
447  4.46  0.  0.
448  4.47  0.  0.
449  4.48  0.  0.
450  4.49  0.  0.
451  4.50  0.  0.
452  4.51  0.  0.
453  4.52  0.  0.
454  4.53  0.  0.
455  4.54  0.  0.
456  4.55  0.  0.
457  4.56  0.  0.
458  4.57  0.  0.
459  4.58  0.  0.
460  4.59  0.  0.
461  4.60  0.  0.
462  4.61  0.  0.
463  4.62  0.  0.
464  4.63  0.  0.
465  4.64  0.  0.
466  4.65  0.  0.
467  4.66  0.  0.
468  4.67  0.  0.
469  4.68  0.  0.
470  4.69  0.  0.
471  4.70  0.  0.
472  4.71  0.  0.
473  4.72  0.  0.
474  4.73  0.  0.
475  4.74  0.  0.
476  4.75  0.  0.
477  4.76  0.  0.
478  4.77  0.  0.
479  4.78  0.  0.
480  4.79  0.  0.
481  4.80  0.  0.
482  4.81  0.  0.
483  4.82  0.  0.
484  4.83  0.  0.
485  4.84  0.  0.
486  4.85  0.  0.
487  4.86  0.  0.
488  4.87  0.  0.
489  4.88  0.  0.
490  4.89  0.  0.
491  4.90  0.  0.
492  4.91  0.  0.
493  4.92  0.  0.
494  4.93  0.  0.
495  4.94  0.  0.
496  4.95  0.  0.
497  4.96  0.  0.
498  4.97  0.  0.
499  4.98  0.  0.
500  4.99  0.  0.
501  5.00  0.  0.
502  5.01  0.  0.
503  5.02  0.  0.
504  5.03  0.  0.
505  5.04  0.  0.
506  5.05  0.  0.
507  5.06  0.  0.
508  5.07  0.  0.
509  5.08  0.  0.
510  5.09  0.  0.
511  5.10  0.  0.
512  5.11  0.  0.
513  5.12  0.  0.
514  5.13  0.  0.
515  5.14  0.  0.
516  5.15  0.  0.
517  5.16  0.  0.
518  5.17  0.  0.
519  5.18  0.  0.
520  5.19  0.  0.
521  5.20  0.  0.
522  5.21  0.  0.
523  5.22  0.  0.
524  5.23  0.  0.
525  5.24  0.  0.
526  5.25  0.  0.
527  5.26  0.  0.
528  5.27  0.  0.
529  5.28  0.  0.
530  5.29  0.  0.
531  5.30  0.  0.
532  5.31  0.  0.
533  5.32  0.  0.
534  5.33  0.  0.
535  5.34  0.  0.
536  5.35  0.  0.
537  5.36  0.  0.
538  5.37  0.  0.
539  5.38  0.  0.
540  5.39  0.  0.
541  5.40  0.  0.
542  5.41  0.  0.
543  5.42  0.  0.
544  5.43  0.  0.
545  5.44  0.  0.
546  5.45  0.  0.
547  5.46  0.  0.
548  5.47  0.  0.
549  5.48  0.  0.
550  5.49  0.  0.
551  5.50  0.  0.
552  5.51  0.  0.
553  5.52  0.  0.
554  5.53  0.  0.
555  5.54  0.  0.
556  5.55  0.  0.
557  5.56  0.  0.
558  5.57  0.  0.
559  5.58  0.  0.
560  5.59  0.  0.
561  5.60  0.  0.
562  5.61  0.  0.
563  5.62  0.  0.
564  5.63  0.  0.
565  5.64  0.  0.
566  5.65  0.  0.
567  5.66  0.  0.
568  5.67  0.  0.
569  5.68  0.  0.
570  5.69  0.  0.
571  5.70  0.  0.
572  5.71  0.  0.
573  5.72  0.  0.
574  5.73  0.  0.
575  5.74  0.  0.
576  5.75  0.  0.
577  5.76  0.  0.
578  5.77  0.  0.
579  5.78  0.  0.
580  5.79  0.  0.
581  5.80  0.  0.
582  5.81  0.  0.
583  5.82  0.  0.
584  5.83  0.  0.
585  5.84  0.  0.
586  5.85  0.  0.
587  5.86  0.  0.
588  5.87  0.  0.
589  5.88  0.  0.
590  5.89  0.  0.
591  5.90  0.  0.
592  5.91  0.  0.
593  5.92  0.  0.
594  5.93  0.  0.
595  5.94  0.  0.
596  5.95  0.  0.
597  5.96  0.  0.
598  5.97  0.  0.
599  5.98  0.  0.
600  5.99  0.  0.
1                         1.4523063604095E+01  1.3408963860931E+00
1  0.0000000000000E+00 -3.4060851500373E-09  1.2363274917715E-08
2  1.0000000000000E-02  1.5530739961764E-03 -6.9754968963167E-04
3  2.0000000000000E-02  6.2090655957374E-03 -2.7930880331252E-03
4  3.0000000000000E-02  1.3958221857702E-02 -6.2950332977915E-03
5  4.0000000000000E-02  2.4784084127520E-02 -1.1216591995500E-02
6  5.0000000000000E-02  3.8663189910853E-02 -1.7574550481336E-02
7  6.0000000000000E-02  5.5564670291840E-02 -2.5387637386026E-02
8  7.0000000000000E-02  7.5449757203293E-02 -3.4674509222129E-02
9  8.0000000000000E-02  9.8271218262374E-02 -4.5451423867262E-02
10  9.0000000000000E-02  1.2397273980500E-01 -5.7729677144994E-02
11  1.0000000000000E-01  1.5248828110467E-01 -7.1512886092158E-02
12  1.1000000000000E-01  1.8374142448074E-01 -8.6794208475369E-02
13  1.2000000000000E-01  2.1764474703818E-01 -1.0355359151951E-01
14  1.3000000000000E-01  2.5409924010499E-01 -1.2175514353055E-01
15  1.4000000000000E-01  2.9299380203292E-01 -1.4134472009879E-01
16  1.5000000000000E-01  3.3420482890972E-01 -1.6224781190025E-01
17  1.6000000000000E-01  3.7759592592345E-01 -1.8436781388841E-01
18  1.7000000000000E-01  4.2301775966776E-01 -2.0758474607530E-01
19  1.8000000000000E-01  4.7030806864369E-01 -2.3175448439440E-01
20  1.9000000000000E-01  5.1929184567751E-01 -2.5670854663445E-01
21  2.0000000000000E-01  5.6978170202800E-01 -2.8225446349957E-01
22  2.1000000000000E-01  6.2157841870417E-01 -3.0817674889764E-01
23  2.2000000000000E-01  6.7447168606755E-01 -3.3423846702595E-01
24  2.3000000000000E-01  7.2824102827056E-01 -3.6018337717151E-01
25  2.4000000000000E-01  7.8265690460354E-01 -3.8573862083871E-01
26  2.5000000000000E-01  8.3748197550805E-01 -4.1061790032187E-01
27  2.6000000000000E-01  8.9247251697779E-01 -4.3452508359469E-01
28  2.7000000000000E-01  9.4737996342018E-01 -4.5715815780490E-01
29  2.8000000000000E-01  1.0019525558881E+00 -4.7821344310769E-01
30  2.9000000000000E-01  1.0559370700000E+00 -4.9738997036139E-01
31  3.0000000000000E-01  1.1090805959154E+00 -5.1439392059447E-01
32  3.1000000000000E-01  1.1611323414773E+00 -5.2894302131829E-01
33  3.2000000000000E-01  1.2118454291038E+00 -5.4077079480947E-01
34  3.3000000000000E-01  1.2609786572308E+00 -5.4963055644850E-01
35  3.4000000000000E-01  1.3082981980562E+00 -5.5529906702141E-01
36  3.5000000000000E-01  1.3535792050078E+00 -5.5757975143555E-01
37  3.6000000000000E-01  1.3966073056852E+00 -5.5630540735614E-01
38  3.7000000000000E-01  1.4371799589631E+00 -5.5134034055194E-01
39  3.8000000000000E-01  1.4751076584012E+00 -5.4258187889639E-01
40  3.9000000000000E-01  1.5102149679880E+00 -5.2996123359667E-01
41  4.0000000000000E-01  1.5423413804499E+00 -5.1344369386411E-01
42  4.1000000000000E-01  1.5713419927581E+00 -4.9302815940751E-01
43  4.2000000000000E-01  1.5970879979493E+00 -4.6874603331696E-01
44  4.3000000000000E-01  1.6194669968096E+00 -4.4065951559396E-01
45  4.4000000000000E-01  1.6383831372283E+00 -4.0885935426471E-01
46  4.5000000000000E-01  1.6537570929967E+00 -3.7346212619892E-01
47  4.6000000000000E-01  1.6655258973813E+00 -3.3460713299514E-01
48  4.7000000000000E-01  1.6736426498448E+00 -2.9245300817875E-01
49  4.8000000000000E-01  1.6780761167366E+00 -2.4717414014831E-01
50  4.9000000000000E-01  1.6788102485428E+00 -1.9895702052577E-01
51  5.0000000000000E-01  1.6758436373349E+00 -1.4799662962166E-01
52  5.1000000000000E-01  1.6691889383411E+00 -9.4492969511918E-02
53  5.2000000000000E-01  1.6588722790834E+00 -3.8647850720972E-02
54  5.3000000000000E-01  1.6449326782769E+00  1.9337969208202E-02
55  5.4000000000000E-01  1.6274214947217E+00  7.9267207732607E-02
56  5.5000000000000E-01  1.6064019237753E+00  1.4094796593324E-01
57  5.6000000000000E-01  1.5819485557570E+00  2.0419506574749E-01
58  5.7000000000000E-01  1.5541470068967E+00  2.6883077582479E-01
59  5.8000000000000E-01  1.5230936293116E+00  3.3468490557714E-01
60  5.9000000000000E-01  1.4888953020929E+00  4.0159426756143E-01
61  6.0000000000000E-01  1.4516693010538E+00  4.6940152932866E-01
62  6.1000000000000E-01  1.4115432401610E+00  5.3795349670716E-01
63  6.2000000000000E-01  1.3686550732931E+00  6.0709889054545E-01
64  6.3000000000000E-01  1.3231531408777E+00  6.7668569762587E-01
65  6.4000000000000E-01  1.2751962422958E+00  7.4655819320033E-01
66  6.5000000000000E-01  1.2249537118265E+00  8.1655374686239E-01
67  6.6000000000000E-01  1.1726054734561E+00  8.8649953478143E-01
68  6.7000000000000E-01  1.1183420481865E+00  9.5620928928482E-01
69  6.8000000000000E-01  1.0623644866245E+00  1.0254802210618E+00
70  6.9000000000000E-01  1.0048841996743E+00  1.0940902496607E+00
71  7.0000000000000E-01  9.4612266111122E-01  1.1617956743358E+00
72  7.1000000000000E-01  8.8631095770122E-01  1.2283294096641E+00
73  7.2000000000000E-01  8.2568916531189E-01  1.2933998987975E+00
74  7.3000000000000E-01  7.6450553309885E-01  1.3566908019519E+00
75  7.4000000000000E-01  7.0301546226360E-01  1.4178615390848E+00
76  7.5000000000000E-01  6.4148027096920E-01  1.4765487441029E+00
77  7.6000000000000E-01  5.8016574264664E-01  1.5323686638717E+00
78  7.7000000000000E-01  5.1934046098554E-01  1.5849205093849E+00
79  7.8000000000000E-01  4.5927394122314E-01  1.6337907393369E+00
80  7.9000000000000E-01  4.0023457375488E-01  1.6785582287408E+00
81  8.0000000000000E-01  3.4248740241363E-01  1.7188002478988E+00
82  8.1000000000000E-01  2.8629176582339E-01  1.7540991506945E+00
83  8.2000000000000E-01  2.3189883584963E-01  1.7840496466091E+00
84  8.3000000000000E-01  1.7954909217290E-01  1.8082665087550E+00
85  8.4000000000000E-01  1.2946977624553E-01  1.8263925512628E+00
86  8.5000000000000E-01  8.1872371211114E-02  1.8381066941385E+00
87  8.6000000000000E-01  3.6950156651168E-02  1.8431319227456E+00
88  8.7000000000000E-01 -5.1241118254806E-03  1.8412429427846E+00
89  8.8000000000000E-01 -4.4200348187157E-02  1.8322733303268E+00
90  8.9000000000000E-01 -8.0153058110497E-02  1.8161219803087E+00
91  9.0000000000000E-01 -1.1288299151975E-01  1.7927586659279E+00
92  9.1000000000000E-01 -1.4231848319292E-01  1.7622285355350E+00
93  9.2000000000000E-01 -1.6841644404221E-01  1.7246553926440E+00
94  9.3000000000000E-01 -1.9116297170724E-01  1.6802436282348E+00
95  9.4000000000000E-01 -2.1057355609349E-01  1.6292787021050E+00
96  9.5000000000000E-01 -2.2669286329813E-01  1.5721261010483E+00
97  9.6000000000000E-01 -2.3959408981756E-01  1.5092287353756E+00
98  9.7000000000000E-01 -2.4937788783306E-01  1.4411027709702E+00
99  9.8000000000000E-01 -2.5617087151543E-01  1.3683319308232E+00
100  9.9000000000000E-01 -2.6012372345291E-01  1.2915603369134E+00
101  1.0000000000000E+00 -2.6140892926492E-01  1.2114839994525E+00
102  1.0100000000000E+00 -2.6021817699222E-01  1.1288410949864E+00
103  1.0200000000000E+00 -2.5675946573295E-01  1.0444012067265E+00
104  1.0300000000000E+00 -2.5125397501223E-01  9.5895372890587E-01
105  1.0400000000000E+00 -2.4393275234295E-01  8.7329566113954E-01
106  1.0500000000000E+00 -2.3503328119353E-01  7.8821903804694E-01
107  1.0600000000000E+00 -2.2479599497224E-01  7.0449825312810E-01
108  1.0700000000000E+00 -2.1346080457351E-01  6.2287754369231E-01
109  1.0800000000000E+00 -2.0126370741946E-01  5.4405890514223E-01
110  1.0900000000000E+00 -1.8843354474980E-01  4.6869069803149E-01
111  1.1000000000000E+00 -1.7518897114289E-01  3.9735719994597E-01
112  1.1100000000000E+00 -1.6173569596283E-01  3.3056933670367E-01
113  1.1200000000000E+00 -1.4826405066235E-01  2.6875680378479E-01
114  1.1300000000000E+00 -1.3494692878747E-01  2.1226175994515E-01
115  1.1400000000000E+00 -1.2193813723683E-01  1.6133424107362E-01
116  1.1500000000000E+00 -1.0937118805136E-01  1.1612940445627E-01
117  1.1600000000000E+00 -9.7358549911841E-02  7.6706672366295E-02
118  1.1700000000000E+00 -8.5991367896104E-02  4.3030800521256E-02
119  1.1800000000000E+00 -7.5339649055650E-02  1.4974852090470E-02
120  1.1900000000000E+00 -6.5452900399783E-02 -7.6749868136559E-03
121  1.2000000000000E+00 -5.6361195017611E-02 -2.5212858484072E-02
122  1.2100000000000E+00 -4.8076631787525E-02 -3.8005101999519E-02
123  1.2200000000000E+00 -4.0595144469805E-02 -4.6480728100793E-02
124  1.2300000000000E+00 -3.3898607350265E-02 -5.1120725066941E-02
125  1.2400000000000E+00 -2.7957177129320E-02 -5.2446450378330E-02
126  1.2500000000000E+00 -2.2731804624042E-02 -5.1007387687656E-02
127  1.2600000000000E+00 -1.8176845282168E-02 -4.7368566943920E-02
128  1.2700000000000E+00 -1.4242707852455E-02 -4.2097918930888E-02
129  1.2800000000000E+00 -1.0878372490800E-02 -3.5754141308221E-02
130  1.2900000000000E+00 -8.0358889642798E-03 -2.8869062737069E-02
131  1.3000000000000E+00 -5.6890044147534E-03 -2.1888112353649E-02
132  1.3100000000000E+00 -3.7928098969151E-03 -1.5284487468419E-02
133  1.3200000000000E+00 -2.3013851413504E-03 -9.5043378930451E-03
134  1.3300000000000E+00 -1.1841953050438E-03 -4.9073491690742E-03
135  1.3400000000000E+00 -4.2852110566587E-04 -1.7461956738437E-03
136  1.3500000000000E+00 -5.0703346136743E-05 -1.9898733292089E-04
137  1.3600000000000E+00  4.8820152455456E-06  1.8729365453382E-05
138  1.3700000000000E+00 -6.5316102477305E-07 -2.5546921720690E-06
139  1.38 -0. -0.
140  1.39  0.  0.
141  1.40  0.  0.
142  1.41  0.  0.
143  1.42  0.  0.
144  1.43  0.  0.
145  1.44  0.  0.
146  1.45  0.  0.
147  1.46  0.  0.
148  1.47  0.  0.
149  1.48  0.  0.
150  1.49  0.  0.
151  1.50  0.  0.
152  1.51  0.  0.
153  1.52  0.  0.
154  1.53  0.  0.
155  1.54  0.  0.
156  1.55  0.  0.
157  1.56  0.  0.
158  1.57  0.  0.
159  1.58  0.  0.
160  1.59  0.  0.
161  1.60  0.  0.
162  1.61  0.  0.
163  1.62  0.  0.
164  1.63  0.  0.
165  1.64  0.  0.
166  1.65  0.  0.
167  1.66  0.  0.
168  1.67  0.  0.
169  1.68  0.  0.
170  1.69  0.  0.
171  1.70  0.  0.
172  1.71  0.  0.
173  1.72  0.  0.
174  1.73  0.  0.
175  1.74  0.  0.
176  1.75  0.  0.
177  1.76  0.  0.
178  1.77  0.  0.
179  1.78  0.  0.
180  1.79  0.  0.
181  1.80  0.  0.
182  1.81  0.  0.
183  1.82  0.  0.
184  1.83  0.  0.
185  1.84  0.  0.
186  1.85  0.  0.
187  1.86  0.  0.
188  1.87  0.  0.
189  1.88  0.  0.
190  1.89  0.  0.
191  1.90  0.  0.
192  1.91  0.  0.
193  1.92  0.  0.
194  1.93  0.  0.
195  1.94  0.  0.
196  1.95  0.  0.
197  1.96  0.  0.
198  1.97  0.  0.
199  1.98  0.  0.
200  1.99  0.  0.
201  2.00  0.  0.
202  2.01  0.  0.
203  2.02  0.  0.
204  2.03  0.  0.
205  2.04  0.  0.
206  2.05  0.  0.
207  2.06  0.  0.
208  2.07  0.  0.
209  2.08  0.  0.
210  2.09  0.  0.
211  2.10  0.  0.
212  2.11  0.  0.
213  2.12  0.  0.
214  2.13  0.  0.
215  2.14  0.  0.
216  2.15  0.  0.
217  2.16  0.  0.
218  2.17  0.  0.
219  2.18  0.  0.
220  2.19  0.  0.
221  2.20  0.  0.
222  2.21  0.  0.
223  2.22  0.  0.
224  2.23  0.  0.
225  2.24  0.  0.
226  2.25  0.  0.
227  2.26  0.  0.
228  2.27  0.  0.
229  2.28  0.  0.
230  2.29  0.  0.
231  2.30  0.  0.
232  2.31  0.  0.
233  2.32  0.  0.
234  2.33  0.  0.
235  2.34  0.  0.
236  2.35  0.  0.
237  2.36  0.  0.
238  2.37  0.  0.
239  2.38  0.  0.
240  2.39  0.  0.
241  2.40  0.  0.
242  2.41  0.  0.
243  2.42  0.  0.
244  2.43  0.  0.
245  2.44  0.  0.
246  2.45  0.  0.
247  2.46  0.  0.
248  2.47  0.  0.
249  2.48  0.  0.
250  2.49  0.  0.
251  2.50  0.  0.
252  2.51  0.  0.
253  2.52  0.  0.
254  2.53  0.  0.
255  2.54  0.  0.
256  2.55  0.  0.
257  2.56  0.  0.
258  2.57  0.  0.
259  2.58  0.  0.
260  2.59  0.  0.
261  2.60  0.  0.
262  2.61  0.  0.
263  2.62  0.  0.
264  2.63  0.  0.
265  2.64  0.  0.
266  2.65  0.  0.
267  2.66  0.  0.
268  2.67  0.  0.
269  2.68  0.  0.
270  2.69  0.  0.
271  2.70  0.  0.
272  2.71  0.  0.
273  2.72  0.  0.
274  2.73  0.  0.
275  2.74  0.  0.
276  2.75  0.  0.
277  2.76  0.  0.
278  2.77  0.  0.
279  2.78  0.  0.
280  2.79  0.  0.
281  2.80  0.  0.
282  2.81  0.  0.
283  2.82  0.  0.
284  2.83  0.  0.
285  2.84  0.  0.
286  2.85  0.  0.
287  2.86  0.  0.
288  2.87  0.  0.
289  2.88  0.  0.
290  2.89  0.  0.
291  2.90  0.  0.
292  2.91  0.  0.
293  2.92  0.  0.
294  2.93  0.  0.
295  2.94  0.  0.
296  2.95  0.  0.
297  2.96  0.  0.
298  2.97  0.  0.
299  2.98  0.  0.
300  2.99  0.  0.
301  3.00  0.  0.
302  3.01  0.  0.