Lv    ONCVPSP-4.0.1  r_core=   1.60171   1.60171   1.80527
116.0000     24.0000      220307    zatom,zion,pspd
8      11   2     4   600     0    pspcod,pspxc,lmax,lloc,mmax,r2well
5.99000000  5.00000000  0.00000000    rchrg fchrg qchrg
2     2     2     0     0    nproj
1     1           extension_switch
0                         1.0311584182337E+01 -1.8618864253118E+00
1  0.0000000000000E+00  2.2547619327185E-10  2.0073119555430E-10
2  1.0000000000000E-02  8.8338584411612E-02  1.3742456023680E-02
3  2.0000000000000E-02  1.7643139993298E-01  2.7497284211731E-02
4  3.0000000000000E-02  2.6403330165979E-01  4.1276693185078E-02
5  4.0000000000000E-02  3.5090039383432E-01  5.5092567420659E-02
6  5.0000000000000E-02  4.3679065729654E-01  6.8956312484339E-02
7  6.0000000000000E-02  5.2146458022423E-01  8.2878708884026E-02
8  7.0000000000000E-02  6.0468579298827E-01  9.6869777176194E-02
9  8.0000000000000E-02  6.8622170772328E-01  1.1093865675828E-01
10  9.0000000000000E-02  7.6584416294048E-01  1.2509350053493E-01
11  1.0000000000000E-01  8.4333007319168E-01  1.3934138736190E-01
12  1.1000000000000E-01  9.1846208343888E-01  1.5368825385208E-01
13  1.2000000000000E-01  9.9102922739786E-01  1.6813884677973E-01
14  1.3000000000000E-01  1.0608275887147E+00  1.8269669694620E-01
15  1.4000000000000E-01  1.1276609634088E+00  1.9736411498102E-01
16  1.5000000000000E-01  1.1913415215824E+00  2.1214220915120E-01
17  1.6000000000000E-01  1.2516904659640E+00  2.2703092484739E-01
18  1.7000000000000E-01  1.3085386844308E+00  2.4202910501355E-01
19  1.8000000000000E-01  1.3617273932461E+00  2.5713457039497E-01
20  1.9000000000000E-01  1.4111087673708E+00  2.7234421810410E-01
21  2.0000000000000E-01  1.4565465538601E+00  2.8765413665138E-01
22  2.1000000000000E-01  1.4979166640511E+00  3.0305973526489E-01
23  2.2000000000000E-01  1.5351077399914E+00  3.1855588503483E-01
24  2.3000000000000E-01  1.5680216903570E+00  3.3413706917025E-01
25  2.4000000000000E-01  1.5965741909641E+00  3.4979753945243E-01
26  2.5000000000000E-01  1.6206951449055E+00  3.6553147581374E-01
27  2.6000000000000E-01  1.6403290973313E+00  3.8133314586762E-01
28  2.7000000000000E-01  1.6554355999571E+00  3.9719706116525E-01
29  2.8000000000000E-01  1.6659895205189E+00  4.1311812695948E-01
30  2.9000000000000E-01  1.6719812926001E+00  4.2909178231739E-01
31  3.0000000000000E-01  1.6734171015382E+00  4.4511412753854E-01
32  3.1000000000000E-01  1.6703190024684E+00  4.6118203600478E-01
33  3.2000000000000E-01  1.6627249669797E+00  4.7729324780866E-01
34  3.3000000000000E-01  1.6506888553389E+00  4.9344644277595E-01
35  3.4000000000000E-01  1.6342803117789E+00  5.0964129081096E-01
36  3.5000000000000E-01  1.6135845809378E+00  5.2587847784623E-01
37  3.6000000000000E-01  1.5887022441692E+00  5.4215970606481E-01
38  3.7000000000000E-01  1.5597488751202E+00  5.5848766747848E-01
39  3.8000000000000E-01  1.5268546146732E+00  5.7486599038222E-01
40  3.9000000000000E-01  1.4901636660695E+00  5.9129915865627E-01
41  4.0000000000000E-01  1.4498337117636E+00  6.0779240434671E-01
42  4.1000000000000E-01  1.4060352542919E+00  6.2435157441416E-01
43  4.2000000000000E-01  1.3589508841596E+00  6.4098297299243E-01
44  4.3000000000000E-01  1.3087744784570E+00  6.5769318093563E-01
45  4.4000000000000E-01  1.2557103345918E+00  6.7448885484793E-01
46  4.5000000000000E-01  1.1999722441641E+00  6.9137650817563E-01
47  4.6000000000000E-01  1.1417825126013E+00  7.0836227729256E-01
48  4.7000000000000E-01  1.0813709307124E+00  7.2545167581857E-01
49  4.8000000000000E-01  1.0189737047950E+00  7.4264934067368E-01
50  4.9000000000000E-01  9.5483235234029E-01  7.5995877358073E-01
51  5.0000000000000E-01  8.8919257071340E-01  7.7738208188541E-01
52  5.1000000000000E-01  8.2230308644656E-01  7.9491972265877E-01
53  5.2000000000000E-01  7.5441449295632E-01  8.1257025408426E-01
54  5.3000000000000E-01  6.8577808458796E-01  8.3033009810549E-01
55  5.4000000000000E-01  6.1664469489738E-01  8.4819331822400E-01
56  5.5000000000000E-01  5.4726354700254E-01  8.6615141618796E-01
57  5.6000000000000E-01  4.7788112367544E-01  8.8419315110517E-01
58  5.7000000000000E-01  4.0874006460378E-01  9.0230438425007E-01
59  5.8000000000000E-01  3.4007809793289E-01  9.2046795251772E-01
60  5.9000000000000E-01  2.7212701280770E-01  9.3866357311326E-01
61  6.0000000000000E-01  2.0511167917765E-01  9.5686778165796E-01
62  6.1000000000000E-01  1.3924912061149E-01  9.7505390544929E-01
63  6.2000000000000E-01  7.4747645300918E-02  9.9319207313858E-01
64  6.3000000000000E-01  1.1806039820648E-02  1.0112492615939E+00
65  6.4000000000000E-01 -4.9387170433061E-02  1.0291893802048E+00
66  6.5000000000000E-01 -1.0865439087482E-01  1.0469733923669E+00
67  6.6000000000000E-01 -1.6582955486960E-01  1.0645594733698E+00
68  6.7000000000000E-01 -2.2075864650866E-01  1.0819032034006E+00
69  6.8000000000000E-01 -2.7330014784083E-01  1.0989577938901E+00
70  6.9000000000000E-01 -3.2332541005525E-01  1.1156743449589E+00
71  7.0000000000000E-01 -3.7071894876688E-01  1.1320021312924E+00
72  7.1000000000000E-01 -4.1537866418105E-01  1.1478889133780E+00
73  7.2000000000000E-01 -4.5721598750080E-01  1.1632812706901E+00
74  7.3000000000000E-01 -4.9615595548269E-01  1.1781249531142E+00
75  7.4000000000000E-01 -5.3213721553766E-01  1.1923652466583E+00
76  7.5000000000000E-01 -5.6511196420852E-01  1.2059473493208E+00
77  7.6000000000000E-01 -5.9504582222965E-01  1.2188167528621E+00
78  7.7000000000000E-01 -6.2191764968548E-01  1.2309196261779E+00
79  7.8000000000000E-01 -6.4571930503035E-01  1.2422031959753E+00
80  7.9000000000000E-01 -6.6645535191190E-01  1.2526161205352E+00
81  8.0000000000000E-01 -6.8414271785566E-01  1.2621088524756E+00
82  8.1000000000000E-01 -6.9881030891949E-01  1.2706339866336E+00
83  8.2000000000000E-01 -7.1049858441764E-01  1.2781465894354E+00
84  8.3000000000000E-01 -7.1925909574878E-01  1.2846045064366E+00
85  8.4000000000000E-01 -7.2515399324473E-01  1.2899686450630E+00
86  8.5000000000000E-01 -7.2825550479371E-01  1.2942032299866E+00
87  8.6000000000000E-01 -7.2864538978903E-01  1.2972760289938E+00
88  8.7000000000000E-01 -7.2641437171979E-01  1.2991585476670E+00
89  8.8000000000000E-01 -7.2166155246042E-01  1.2998261916695E+00
90  8.9000000000000E-01 -7.1449381104011E-01  1.2992583959175E+00
91  9.0000000000000E-01 -7.0502518938876E-01  1.2974387204039E+00
92  9.1000000000000E-01 -6.9337626727106E-01  1.2943549129278E+00
93  9.2000000000000E-01 -6.7967352834341E-01  1.2899989394469E+00
94  9.3000000000000E-01 -6.6404871900587E-01  1.2843669832172E+00
95  9.4000000000000E-01 -6.4663820148237E-01  1.2774594142991E+00
96  9.5000000000000E-01 -6.2758230235110E-01  1.2692807313885E+00
97  9.6000000000000E-01 -6.0702465757141E-01  1.2598394782625E+00
98  9.7000000000000E-01 -5.8511155491706E-01  1.2491481374187E+00
99  9.8000000000000E-01 -5.6199127463256E-01  1.2372230037146E+00
100  9.9000000000000E-01 -5.3781342908287E-01  1.2240840409903E+00
101  1.0000000000000E+00 -5.1272830216824E-01  1.2097547247680E+00
102  1.0100000000000E+00 -4.8688618932538E-01  1.1942618741751E+00
103  1.0200000000000E+00 -4.6043673903434E-01  1.1776354762255E+00
104  1.0300000000000E+00 -4.3352829689376E-01  1.1599085055216E+00
105  1.0400000000000E+00 -4.0630725351329E-01  1.1411167423048E+00
106  1.0500000000000E+00 -3.7891739769756E-01  1.1212985915947E+00
107  1.0600000000000E+00 -3.5149927665348E-01  1.1004949059120E+00
108  1.0700000000000E+00 -3.2418956523866E-01  1.0787488137913E+00
109  1.0800000000000E+00 -2.9712044657381E-01  1.0561055559546E+00
110  1.0900000000000E+00 -2.7041900665912E-01  1.0326123306491E+00
111  1.1000000000000E+00 -2.4420664595667E-01  1.0083181492568E+00
112  1.1100000000000E+00 -2.1859851121599E-01  9.8327370286284E-01
113  1.1200000000000E+00 -1.9370295112288E-01  9.5753124004700E-01
114  1.1300000000000E+00 -1.6962099962963E-01  9.3114445572427E-01
115  1.1400000000000E+00 -1.4644589107116E-01  9.0416839043950E-01
116  1.1500000000000E+00 -1.2426261137647E-01  8.7665933910667E-01
117  1.1600000000000E+00 -1.0314748984000E-01  8.4867476779562E-01
118  1.1700000000000E+00 -8.3167836014966E-02  8.2027323681178E-01
119  1.1800000000000E+00 -6.4381626323579E-02  7.9151432799590E-01
120  1.1900000000000E+00 -4.6837244941476E-02  7.6245857389977E-01
121  1.2000000000000E+00 -3.0573283398670E-02  7.3316738627428E-01
122  1.2100000000000E+00 -1.5618403145982E-02  7.0370298114692E-01
123  1.2200000000000E+00 -1.9912650572479E-03  6.7412829766847E-01
124  1.2300000000000E+00  1.0299470524741E-02  6.4450690788002E-01
125  1.2400000000000E+00  2.1255070037675E-02  6.1490291459171E-01
126  1.2500000000000E+00  3.0886576618287E-02  5.8538083467820E-01
127  1.2600000000000E+00  3.9214581676056E-02  5.5600546528021E-01
128  1.2700000000000E+00  4.6268916803025E-02  5.2684173065960E-01
129  1.2800000000000E+00  5.2088265469590E-02  4.9795450778384E-01
130  1.2900000000000E+00  5.6719694789488E-02  4.6940842911068E-01
131  1.3000000000000E+00  6.0218108537286E-02  4.4126766150535E-01
132  1.3100000000000E+00  6.2645623553153E-02  4.1359566074385E-01
133  1.3200000000000E+00  6.4070872664874E-02  3.8645490163074E-01
134  1.3300000000000E+00  6.4568238289123E-02  3.5990658438412E-01
135  1.3400000000000E+00  6.4217021934242E-02  3.3401031860905E-01
136  1.3500000000000E+00  6.3100555899071E-02  3.0882378688206E-01
137  1.3600000000000E+00  6.1305264538939E-02  2.8440239069781E-01
138  1.3700000000000E+00  5.8919683545677E-02  2.6079888228076E-01
139  1.3800000000000E+00  5.6033446743207E-02  2.3806298652568E-01
140  1.3900000000000E+00  5.2736250929966E-02  2.1624101809646E-01
141  1.4000000000000E+00  4.9116810290654E-02  1.9537549947395E-01
142  1.4100000000000E+00  4.5261812845375E-02  1.7550478649360E-01
143  1.4200000000000E+00  4.1254892294640E-02  1.5666270864559E-01
144  1.4300000000000E+00  3.7175629441133E-02  1.3887823211298E-01
145  1.4400000000000E+00  3.3098598122202E-02  1.2217515419592E-01
146  1.4500000000000E+00  2.9092471259011E-02  1.0657183840166E-01
147  1.4600000000000E+00  2.5219203214276E-02  9.2081000067082E-02
148  1.4700000000000E+00  2.1533305148298E-02  7.8709552919777E-02
149  1.4800000000000E+00  1.8081230462360E-02  6.6458527465553E-02
150  1.4900000000000E+00  1.4900887722598E-02  5.5323072516991E-02
151  1.5000000000000E+00  1.2021297920555E-02  4.5292550544247E-02
152  1.5100000000000E+00  9.4624177135648E-03  3.6350742278210E-02
153  1.5200000000000E+00  7.2351321826127E-03  2.8476173482065E-02
154  1.5300000000000E+00  5.3390408888685E-03  2.1638940863547E-02
155  1.5400000000000E+00  3.7652067928586E-03  1.5804269720953E-02
156  1.5500000000000E+00  2.5026587615271E-03  1.0942384397087E-02
157  1.5600000000000E+00  1.5323911792615E-03  7.0199272608667E-03
158  1.5700000000000E+00  8.2892287194693E-04  4.0014004060487E-03
159  1.5800000000000E+00  3.6193585792923E-04  1.8511108164962E-03
160  1.5900000000000E+00  9.7016839596914E-05  5.2774851661013E-04
161  1.6000000000000E+00  4.0633702030931E-06  2.3833733743089E-05
162  1.6100000000000E+00 -8.2056999802861E-07 -4.9674057011952E-06
163  1.6200000000000E+00  2.4504315769812E-07  1.4222004423900E-06
164  1.63 -0. -0.
165  1.64 -0. -0.
166  1.65  0.  0.
167  1.66  0.  0.
168  1.67  0.  0.
169  1.68  0.  0.
170  1.69  0.  0.
171  1.70  0.  0.
172  1.71  0.  0.
173  1.72  0.  0.
174  1.73  0.  0.
175  1.74  0.  0.
176  1.75  0.  0.
177  1.76  0.  0.
178  1.77  0.  0.
179  1.78  0.  0.
180  1.79  0.  0.
181  1.80  0.  0.
182  1.81  0.  0.
183  1.82  0.  0.
184  1.83  0.  0.
185  1.84  0.  0.
186  1.85  0.  0.
187  1.86  0.  0.
188  1.87  0.  0.
189  1.88  0.  0.
190  1.89  0.  0.
191  1.90  0.  0.
192  1.91  0.  0.
193  1.92  0.  0.
194  1.93  0.  0.
195  1.94  0.  0.
196  1.95  0.  0.
197  1.96  0.  0.
198  1.97  0.  0.
199  1.98  0.  0.
200  1.99  0.  0.
201  2.00  0.  0.
202  2.01  0.  0.
203  2.02  0.  0.
204  2.03  0.  0.
205  2.04  0.  0.
206  2.05  0.  0.
207  2.06  0.  0.
208  2.07  0.  0.
209  2.08  0.  0.
210  2.09  0.  0.
211  2.10  0.  0.
212  2.11  0.  0.
213  2.12  0.  0.
214  2.13  0.  0.
215  2.14  0.  0.
216  2.15  0.  0.
217  2.16  0.  0.
218  2.17  0.  0.
219  2.18  0.  0.
220  2.19  0.  0.
221  2.20  0.  0.
222  2.21  0.  0.
223  2.22  0.  0.
224  2.23  0.  0.
225  2.24  0.  0.
226  2.25  0.  0.
227  2.26  0.  0.
228  2.27  0.  0.
229  2.28  0.  0.
230  2.29  0.  0.
231  2.30  0.  0.
232  2.31  0.  0.
233  2.32  0.  0.
234  2.33  0.  0.
235  2.34  0.  0.
236  2.35  0.  0.
237  2.36  0.  0.
238  2.37  0.  0.
239  2.38  0.  0.
240  2.39  0.  0.
241  2.40  0.  0.
242  2.41  0.  0.
243  2.42  0.  0.
244  2.43  0.  0.
245  2.44  0.  0.
246  2.45  0.  0.
247  2.46  0.  0.
248  2.47  0.  0.
249  2.48  0.  0.
250  2.49  0.  0.
251  2.50  0.  0.
252  2.51  0.  0.
253  2.52  0.  0.
254  2.53  0.  0.
255  2.54  0.  0.
256  2.55  0.  0.
257  2.56  0.  0.
258  2.57  0.  0.
259  2.58  0.  0.
260  2.59  0.  0.
261  2.60  0.  0.
262  2.61  0.  0.
263  2.62  0.  0.
264  2.63  0.  0.
265  2.64  0.  0.
266  2.65  0.  0.
267  2.66  0.  0.
268  2.67  0.  0.
269  2.68  0.  0.
270  2.69  0.  0.
271  2.70  0.  0.
272  2.71  0.  0.
273  2.72  0.  0.
274  2.73  0.  0.
275  2.74  0.  0.
276  2.75  0.  0.
277  2.76  0.  0.
278  2.77  0.  0.
279  2.78  0.  0.
280  2.79  0.  0.
281  2.80  0.  0.
282  2.81  0.  0.
283  2.82  0.  0.
284  2.83  0.  0.
285  2.84  0.  0.
286  2.85  0.  0.
287  2.86  0.  0.
288  2.87  0.  0.
289  2.88  0.  0.
290  2.89  0.  0.
291  2.90  0.  0.
292  2.91  0.  0.
293  2.92  0.  0.
294  2.93  0.  0.
295  2.94  0.  0.
296  2.95  0.  0.
297  2.96  0.  0.
298  2.97  0.  0.
299  2.98  0.  0.
300  2.99  0.  0.
301  3.00  0.  0.
302  3.01  0.  0.
303  3.02  0.  0.
304  3.03  0.  0.
305  3.04  0.  0.
306  3.05  0.  0.
307  3.06  0.  0.
308  3.07  0.  0.
309  3.08  0.  0.
310  3.09  0.  0.
311  3.10  0.  0.
312  3.11  0.  0.
313  3.12  0.  0.
314  3.13  0.  0.
315  3.14  0.  0.
316  3.15  0.  0.
317  3.16  0.  0.
318  3.17  0.  0.
319  3.18  0.  0.
320  3.19  0.  0.
321  3.20  0.  0.
322  3.21  0.  0.
323  3.22  0.  0.
324  3.23  0.  0.
325  3.24  0.  0.
326  3.25  0.  0.
327  3.26  0.  0.
328  3.27  0.  0.
329  3.28  0.  0.
330  3.29  0.  0.
331  3.30  0.  0.
332  3.31  0.  0.
333  3.32  0.  0.
334  3.33  0.  0.
335  3.34  0.  0.
336  3.35  0.  0.
337  3.36  0.  0.
338  3.37  0.  0.
339  3.38  0.  0.
340  3.39  0.  0.
341  3.40  0.  0.
342  3.41  0.  0.
343  3.42  0.  0.
344  3.43  0.  0.
345  3.44  0.  0.
346  3.45  0.  0.
347  3.46  0.  0.
348  3.47  0.  0.
349  3.48  0.  0.
350  3.49  0.  0.
351  3.50  0.  0.
352  3.51  0.  0.
353  3.52  0.  0.
354  3.53  0.  0.
355  3.54  0.  0.
356  3.55  0.  0.
357  3.56  0.  0.
358  3.57  0.  0.
359  3.58  0.  0.
360  3.59  0.  0.
361  3.60  0.  0.
362  3.61  0.  0.
363  3.62  0.  0.
364  3.63  0.  0.
365  3.64  0.  0.
366  3.65  0.  0.
367  3.66  0.  0.
368  3.67  0.  0.
369  3.68  0.  0.
370  3.69  0.  0.
371  3.70  0.  0.
372  3.71  0.  0.
373  3.72  0.  0.
374  3.73  0.  0.
375  3.74  0.  0.
376  3.75  0.  0.
377  3.76  0.  0.
378  3.77  0.  0.
379  3.78  0.  0.
380  3.79  0.  0.
381  3.80  0.  0.
382  3.81  0.  0.
383  3.82  0.  0.
384  3.83  0.  0.
385  3.84  0.  0.
386  3.85  0.  0.
387  3.86  0.  0.
388  3.87  0.  0.
389  3.88  0.  0.
390  3.89  0.  0.
391  3.90  0.  0.
392  3.91  0.  0.
393  3.92  0.  0.
394  3.93  0.  0.
395  3.94  0.  0.
396  3.95  0.  0.
397  3.96  0.  0.
398  3.97  0.  0.
399  3.98  0.  0.
400  3.99  0.  0.
401  4.00  0.  0.
402  4.01  0.  0.
403  4.02  0.  0.
404  4.03  0.  0.
405  4.04  0.  0.
406  4.05  0.  0.
407  4.06  0.  0.
408  4.07  0.  0.
409  4.08  0.  0.
410  4.09  0.  0.
411  4.10  0.  0.
412  4.11  0.  0.
413  4.12  0.  0.
414  4.13  0.  0.
415  4.14  0.  0.
416  4.15  0.  0.
417  4.16  0.  0.
418  4.17  0.  0.
419  4.18  0.  0.
420  4.19  0.  0.
421  4.20  0.  0.
422  4.21  0.  0.
423  4.22  0.  0.
424  4.23  0.  0.
425  4.24  0.  0.
426  4.25  0.  0.
427  4.26  0.  0.
428  4.27  0.  0.
429  4.28  0.  0.
430  4.29  0.  0.
431  4.30  0.  0.
432  4.31  0.  0.
433  4.32  0.  0.
434  4.33  0.  0.
435  4.34  0.  0.
436  4.35  0.  0.
437  4.36  0.  0.
438  4.37  0.  0.
439  4.38  0.  0.
440  4.39  0.  0.
441  4.40  0.  0.
442  4.41  0.  0.
443  4.42  0.  0.
444  4.43  0.  0.
445  4.44  0.  0.
446  4.45  0.  0.
447  4.46  0.  0.
448  4.47  0.  0.
449  4.48  0.  0.
450  4.49  0.  0.
451  4.50  0.  0.
452  4.51  0.  0.
453  4.52  0.  0.
454  4.53  0.  0.
455  4.54  0.  0.
456  4.55  0.  0.
457  4.56  0.  0.
458  4.57  0.  0.
459  4.58  0.  0.
460  4.59  0.  0.
461  4.60  0.  0.
462  4.61  0.  0.
463  4.62  0.  0.
464  4.63  0.  0.
465  4.64  0.  0.
466  4.65  0.  0.
467  4.66  0.  0.
468  4.67  0.  0.
469  4.68  0.  0.
470  4.69  0.  0.
471  4.70  0.  0.
472  4.71  0.  0.
473  4.72  0.  0.
474  4.73  0.  0.
475  4.74  0.  0.
476  4.75  0.  0.
477  4.76  0.  0.
478  4.77  0.  0.
479  4.78  0.  0.
480  4.79  0.  0.
481  4.80  0.  0.
482  4.81  0.  0.
483  4.82  0.  0.
484  4.83  0.  0.
485  4.84  0.  0.
486  4.85  0.  0.
487  4.86  0.  0.
488  4.87  0.  0.
489  4.88  0.  0.
490  4.89  0.  0.
491  4.90  0.  0.
492  4.91  0.  0.
493  4.92  0.  0.
494  4.93  0.  0.
495  4.94  0.  0.
496  4.95  0.  0.
497  4.96  0.  0.
498  4.97  0.  0.
499  4.98  0.  0.
500  4.99  0.  0.
501  5.00  0.  0.
502  5.01  0.  0.
503  5.02  0.  0.
504  5.03  0.  0.
505  5.04  0.  0.
506  5.05  0.  0.
507  5.06  0.  0.
508  5.07  0.  0.
509  5.08  0.  0.
510  5.09  0.  0.
511  5.10  0.  0.
512  5.11  0.  0.
513  5.12  0.  0.
514  5.13  0.  0.
515  5.14  0.  0.
516  5.15  0.  0.
517  5.16  0.  0.
518  5.17  0.  0.
519  5.18  0.  0.
520  5.19  0.  0.
521  5.20  0.  0.
522  5.21  0.  0.
523  5.22  0.  0.
524  5.23  0.  0.
525  5.24  0.  0.
526  5.25  0.  0.
527  5.26  0.  0.
528  5.27  0.  0.
529  5.28  0.  0.
530  5.29  0.  0.
531  5.30  0.  0.
532  5.31  0.  0.
533  5.32  0.  0.
534  5.33  0.  0.
535  5.34  0.  0.
536  5.35  0.  0.
537  5.36  0.  0.
538  5.37  0.  0.
539  5.38  0.  0.
540  5.39  0.  0.
541  5.40  0.  0.
542  5.41  0.  0.
543  5.42  0.  0.
544  5.43  0.  0.
545  5.44  0.  0.
546  5.45  0.  0.
547  5.46  0.  0.
548  5.47  0.  0.
549  5.48  0.  0.
550  5.49  0.  0.
551  5.50  0.  0.
552  5.51  0.  0.
553  5.52  0.  0.
554  5.53  0.  0.
555  5.54  0.  0.
556  5.55  0.  0.
557  5.56  0.  0.
558  5.57  0.  0.
559  5.58  0.  0.
560  5.59  0.  0.
561  5.60  0.  0.
562  5.61  0.  0.
563  5.62  0.  0.
564  5.63  0.  0.
565  5.64  0.  0.
566  5.65  0.  0.
567  5.66  0.  0.
568  5.67  0.  0.
569  5.68  0.  0.
570  5.69  0.  0.
571  5.70  0.  0.
572  5.71  0.  0.
573  5.72  0.  0.
574  5.73  0.  0.
575  5.74  0.  0.
576  5.75  0.  0.
577  5.76  0.  0.
578  5.77  0.  0.
579  5.78  0.  0.
580  5.79  0.  0.
581  5.80  0.  0.
582  5.81  0.  0.
583  5.82  0.  0.
584  5.83  0.  0.
585  5.84  0.  0.
586  5.85  0.  0.
587  5.86  0.  0.
588  5.87  0.  0.
589  5.88  0.  0.
590  5.89  0.  0.
591  5.90  0.  0.
592  5.91  0.  0.
593  5.92  0.  0.
594  5.93  0.  0.
595  5.94  0.  0.
596  5.95  0.  0.
597  5.96  0.  0.
598  5.97  0.  0.
599  5.98  0.  0.
600  5.99  0.  0.
1                         6.6995693230333E+00 -8.2226542601565E-01
1  0.0000000000000E+00 -1.2412299660314E-09 -2.0000170959482E-09
2  1.0000000000000E-02  1.8033599870913E-03  2.9425886284913E-05
3  2.0000000000000E-02  7.2070295073066E-03  1.2012737859936E-04
4  3.0000000000000E-02  1.6191769530576E-02  2.7932113049267E-04
5  4.0000000000000E-02  2.8725490074521E-02  5.1885326587426E-04
6  5.0000000000000E-02  4.4763215439245E-02  8.5493107401941E-04
7  6.0000000000000E-02  6.4247040739747E-02  1.3077555811747E-03
8  7.0000000000000E-02  8.7106084794469E-02  1.9010629949896E-03
9  8.0000000000000E-02  1.1325644566973E-01  2.6615850180169E-03
10  9.0000000000000E-02  1.4260116627357E-01  3.6184398208703E-03
11  1.0000000000000E-01  1.7503021831215E-01  4.8024670168599E-03
12  1.1000000000000E-01  2.1042051364437E-01  6.2455212557267E-03
13  1.2000000000000E-01  2.4863595257617E-01  7.9797400272370E-03
14  1.3000000000000E-01  2.8952751891058E-01  1.0036801914954E-02
15  1.4000000000000E-01  3.3293343160300E-01  1.2447191851624E-02
16  1.5000000000000E-01  3.7867936265703E-01  1.5239489892692E-02
17  1.6000000000000E-01  4.2657873043570E-01  1.8439699642137E-02
18  1.7000000000000E-01  4.7643307685992E-01  2.2070631741263E-02
19  1.8000000000000E-01  5.2803253603018E-01  2.6151356778959E-02
20  1.9000000000000E-01  5.8115640065418E-01  3.0696740620860E-02
21  2.0000000000000E-01  6.3557379131090E-01  3.5717073510198E-02
22  2.1000000000000E-01  6.9104443205383E-01  4.1217802396865E-02
23  2.2000000000000E-01  7.4731953418070E-01  4.7199373839691E-02
24  2.3000000000000E-01  8.0414278820370E-01  5.3657192541685E-02
25  2.4000000000000E-01  8.6125146217632E-01  6.0581698163966E-02
26  2.5000000000000E-01  9.1837760260682E-01  6.7958560569024E-02
27  2.6000000000000E-01  9.7524933224899E-01  7.5768991118030E-02
28  2.7000000000000E-01  1.0315922371478E+00  8.3990165140579E-02
29  2.8000000000000E-01  1.0871308334661E+00  9.2595748259615E-02
30  2.9000000000000E-01  1.1415901028690E+00  1.0155651693920E-01
31  3.0000000000000E-01  1.1946970836241E+00  1.1084106147582E-01
32  3.1000000000000E-01  1.2461825031304E+00  1.2041655772057E-01
33  3.2000000000000E-01  1.2957824363386E+00  1.3024959214007E-01
34  3.3000000000000E-01  1.3432399735027E+00  1.4030702343598E-01
35  3.4000000000000E-01  1.3883068799281E+00  1.5055686287601E-01
36  3.5000000000000E-01  1.4307452298772E+00  1.6096915476987E-01
37  3.6000000000000E-01  1.4703289965661E+00  1.7151683816856E-01
38  3.7000000000000E-01  1.5068455802546E+00  1.8217657088745E-01
39  3.8000000000000E-01  1.5400972567895E+00  1.9292949735530E-01
40  3.9000000000000E-01  1.5699025296148E+00  2.0376194257084E-01
41  4.0000000000000E-01  1.5960973691984E+00  2.1466601559313E-01
42  4.1000000000000E-01  1.6185363250301E+00  2.2564010748541E-01
43  4.2000000000000E-01  1.6370934968141E+00  2.3668927044710E-01
44  4.3000000000000E-01  1.6516633531631E+00  2.4782546697555E-01
45  4.4000000000000E-01  1.6621613880062E+00  2.5906768025776E-01
46  4.5000000000000E-01  1.6685246069842E+00  2.7044187956159E-01
47  4.6000000000000E-01  1.6707118383157E+00  2.8198083712661E-01
48  4.7000000000000E-01  1.6687038649232E+00  2.9372379589586E-01
49  4.8000000000000E-01  1.6625033769729E+00  3.0571599032698E-01
50  4.9000000000000E-01  1.6521347463697E+00  3.1800802541883E-01
51  5.0000000000000E-01  1.6376436271114E+00  3.3065512193085E-01
52  5.1000000000000E-01  1.6190963877052E+00  3.4371623850122E-01
53  5.2000000000000E-01  1.5965793840479E+00  3.5725308393190E-01
54  5.3000000000000E-01  1.5701980832218E+00  3.7132903525191E-01
55  5.4000000000000E-01  1.5400760505327E+00  3.8600797924665E-01
56  5.5000000000000E-01  1.5063538137808E+00  4.0135309690678E-01
57  5.6000000000000E-01  1.4691876201745E+00  4.1742561166837E-01
58  5.7000000000000E-01  1.4287481024529E+00  4.3428352335300E-01
59  5.8000000000000E-01  1.3852188716549E+00  4.5198035035062E-01
60  5.9000000000000E-01  1.3387950545411E+00  4.7056390279888E-01
61  6.0000000000000E-01  1.2896817939388E+00  4.9007510929473E-01
62  6.1000000000000E-01  1.2380927302299E+00  5.1054691902406E-01
63  6.2000000000000E-01  1.1842484818448E+00  5.3200330012222E-01
64  6.3000000000000E-01  1.1283751419686E+00  5.5445835359809E-01
65  6.4000000000000E-01  1.0707028077244E+00  5.7791556029050E-01
66  6.5000000000000E-01  1.0114641568922E+00  6.0236717611111E-01
67  6.6000000000000E-01  9.5089308578062E-01  6.2779378830058E-01
68  6.7000000000000E-01  8.8922342021012E-01  6.5416404263042E-01
69  6.8000000000000E-01  8.2668770974314E-01  6.8143454847365E-01
70  6.9000000000000E-01  7.6351611332841E-01  7.0954996549729E-01
71  7.0000000000000E-01  6.9993538246542E-01  7.3844327246057E-01
72  7.1000000000000E-01  6.3616794587817E-01  7.6803621529524E-01
73  7.2000000000000E-01  5.7243109755848E-01  7.9823992836239E-01
74  7.3000000000000E-01  5.0893628794324E-01  8.2895571958813E-01
75  7.4000000000000E-01  4.4588851596832E-01  8.6007600714050E-01
76  7.5000000000000E-01  3.8348581783660E-01  8.9148539248190E-01
77  7.6000000000000E-01  3.2191884658759E-01  9.2306185207312E-01
78  7.7000000000000E-01  2.6137053499689E-01  9.5467802776765E-01
79  7.8000000000000E-01  2.0201583299746E-01  9.8620259406541E-01
80  7.9000000000000E-01  1.4402150972796E-01  1.0175016789319E+00
81  8.0000000000000E-01  8.7546009499535E-02  1.0484403138656E+00
82  8.1000000000000E-01  3.2739350445923E-02  1.0788838883353E+00
83  8.2000000000000E-01 -2.0256945605368E-02  1.1086995836242E+00
84  8.3000000000000E-01 -7.1309903427956E-02  1.1377577615184E+00
85  8.4000000000000E-01 -1.2029513586964E-01  1.1659332841527E+00
86  8.5000000000000E-01 -1.6709688684945E-01  1.1931067426719E+00
87  8.6000000000000E-01 -2.1160808528304E-01  1.2191655741494E+00
88  8.7000000000000E-01 -2.5373041814464E-01  1.2440050484011E+00
89  8.8000000000000E-01 -2.9337442945135E-01  1.2675291088990E+00
90  8.9000000000000E-01 -3.3045965033793E-01  1.2896510548780E+00
91  9.0000000000000E-01 -3.6491476361543E-01  1.3102940548822E+00
92  9.1000000000000E-01 -3.9667780431525E-01  1.3293914853647E+00
93  9.2000000000000E-01 -4.2569639575538E-01  1.3468870914518E+00
94  9.3000000000000E-01 -4.5192801867380E-01  1.3627349705646E+00
95  9.4000000000000E-01 -4.7534030900311E-01  1.3768993831630E+00
96  9.5000000000000E-01 -4.9591137795618E-01  1.3893543983867E+00
97  9.6000000000000E-01 -5.1363014630425E-01  1.4000833857292E+00
98  9.7000000000000E-01 -5.2849668309929E-01  1.4090783670364E+00
99  9.8000000000000E-01 -5.4052253766463E-01  1.4163392459962E+00
100  9.9000000000000E-01 -5.4973105249182E-01  1.4218729348281E+00
101  1.0000000000000E+00 -5.5615764376896E-01  1.4256924000234E+00
102  1.0100000000000E+00 -5.5985003565867E-01  1.4278156507018E+00
103  1.0200000000000E+00 -5.6086843416186E-01  1.4282646943722E+00
104  1.0300000000000E+00 -5.5928562646713E-01  1.4270644856124E+00
105  1.0400000000000E+00 -5.5518699209980E-01  1.4242418933675E+00
106  1.0500000000000E+00 -5.4867041295699E-01  1.4198247122232E+00
107  1.0600000000000E+00 -5.3984607043539E-01  1.4138407421211E+00
108  1.0700000000000E+00 -5.2883611931685E-01  1.4063169595722E+00
109  1.0800000000000E+00 -5.1577422985626E-01  1.3972788014993E+00
110  1.0900000000000E+00 -5.0080499157854E-01  1.3867495804566E+00
111  1.1000000000000E+00 -4.8408317462319E-01  1.3747500471398E+00
112  1.1100000000000E+00 -4.6577284701009E-01  1.3612981129081E+00
113  1.1200000000000E+00 -4.4604634892151E-01  1.3464087415022E+00
114  1.1300000000000E+00 -4.2508312792825E-01  1.3300940153764E+00
115  1.1400000000000E+00 -4.0306844199952E-01  1.3123633780873E+00
116  1.1500000000000E+00 -3.8019194005409E-01  1.2932240501242E+00
117  1.1600000000000E+00 -3.5664613269155E-01  1.2726816114649E+00
118  1.1700000000000E+00 -3.3262476851267E-01  1.2507407401047E+00
119  1.1800000000000E+00 -3.0832113405998E-01  1.2274060919011E+00
120  1.1900000000000E+00 -2.8392629779984E-01  1.2026833033973E+00
121  1.2000000000000E+00 -2.5962732070624E-01  1.1765800958876E+00
122  1.2100000000000E+00 -2.3560545780711E-01  1.1491074559751E+00
123  1.2200000000000E+00 -2.1203437650500E-01  1.1202808652767E+00
124  1.2300000000000E+00 -1.8907841852055E-01  1.0901215498412E+00
125  1.2400000000000E+00 -1.6689093290990E-01  1.0586577183037E+00
126  1.2500000000000E+00 -1.4561270774320E-01  1.0259257568442E+00
127  1.2600000000000E+00 -1.2537052768499E-01  9.9197134869611E-01
128  1.2700000000000E+00 -1.0627588387443E-01  9.5685048626955E-01
129  1.2800000000000E+00 -8.8423861157179E-02  9.2063034494511E-01
130  1.2900000000000E+00 -7.1892225891123E-02  8.8338998923764E-01
131  1.3000000000000E+00 -5.6740735224861E-02  8.4522088433765E-01
132  1.3100000000000E+00 -4.3010685966191E-02  8.0622718898251E-01
133  1.3200000000000E+00 -3.0724717948593E-02  7.6652580915136E-01
134  1.3300000000000E+00 -1.9886883193080E-02  7.2624619618910E-01
135  1.3400000000000E+00 -1.0482988184152E-02  6.8552987760702E-01
136  1.3500000000000E+00 -2.4812123000888E-03  6.4452971389907E-01
137  1.3600000000000E+00  4.1669990933578E-03  6.0340888019405E-01
138  1.3700000000000E+00  9.5257731368092E-03  5.6233957740601E-01
139  1.3800000000000E+00  1.3673390695395E-02  5.2150148361914E-01
140  1.3900000000000E+00  1.6700626418909E-02  4.8107996271004E-01
141  1.4000000000000E+00  1.8708868762146E-02  4.4126405357199E-01
142  1.4100000000000E+00  1.9808046053882E-02  4.0224426969863E-01
143  1.4200000000000E+00  2.0114389586508E-02  3.6421024523634E-01
144  1.4300000000000E+00  1.9748069411610E-02  3.2734826981390E-01
145  1.4400000000000E+00  1.8830743051383E-02  2.9183876048208E-01
146  1.4500000000000E+00  1.7483061597993E-02  2.5785372484538E-01
147  1.4600000000000E+00  1.5822181629221E-02  2.2555427488446E-01
148  1.4700000000000E+00  1.3959335006388E-02  1.9508825603414E-01
149  1.4800000000000E+00  1.1997511859383E-02  1.6658806068658E-01
150  1.4900000000000E+00  1.0029314922955E-02  1.4016869945659E-01
151  1.5000000000000E+00  8.1350434702481E-03  1.1592620527623E-01
152  1.5100000000000E+00  6.3810771893448E-03  9.3936454777430E-02
153  1.5200000000000E+00  4.8186300666414E-03  7.4254516455546E-02
154  1.5300000000000E+00  3.4742724446089E-03  5.6907022381960E-02
155  1.5400000000000E+00  2.3565218117978E-03  4.1898229135314E-02
156  1.5500000000000E+00  1.4778199161659E-03  2.9230603041541E-02
157  1.5600000000000E+00  8.3290949308239E-04  1.8888302161349E-02
158  1.5700000000000E+00  4.0112996952234E-04  1.0840731412807E-02
159  1.5800000000000E+00  1.4864367266906E-04  5.0483321682178E-03
160  1.5900000000000E+00  3.1517215678416E-05  1.4483929326806E-03
161  1.6000000000000E+00  8.5706232180565E-07  6.5846898329799E-05
162  1.6100000000000E+00 -1.3058598300609E-07 -1.3771383617381E-05
163  1.6200000000000E+00  5.5735468477838E-08  3.9281674435062E-06
164  1.63 -0. -0.
165  1.64 -0.  0.
166  1.65  0.  0.