Lv    ONCVPSP-4.0.1  r_core=   1.60171   1.60171   1.80527   1.60171
116.0000     24.0000      220308    zatom,zion,pspd
8      11   3     4   600     0    pspcod,pspxc,lmax,lloc,mmax,r2well
5.99000000  5.00000000  0.00000000    rchrg fchrg qchrg
2     3     2     1    nproj
3     1           extension_switch
3     4     2    nprojso
0                         1.0454188847244E+01 -1.8209684533281E+00
1  0.0000000000000E+00  2.2188428872028E-10  2.0660692601204E-10
2  1.0000000000000E-02  8.8108852993570E-02  1.3303413283458E-02
3  2.0000000000000E-02  1.7597420552034E-01  2.6619465569789E-02
4  3.0000000000000E-02  2.6335317223015E-01  3.9960630052876E-02
5  4.0000000000000E-02  3.5000409917169E-01  5.3339051329315E-02
6  5.0000000000000E-02  4.3568718234778E-01  6.6766388597669E-02
7  6.0000000000000E-02  5.2016508953600E-01  8.0253667705205E-02
8  7.0000000000000E-02  6.0320358619711E-01  9.3811144744062E-02
9  8.0000000000000E-02  6.8457216607153E-01  1.0744818369217E-01
10  9.0000000000000E-02  7.6404468679479E-01  1.2117315034257E-01
11  1.0000000000000E-01  8.4140001055035E-01  1.3499332447224E-01
12  1.1000000000000E-01  9.1642264942898E-01  1.4891483187308E-01
13  1.2000000000000E-01  9.8890341478364E-01  1.6294259750870E-01
14  1.3000000000000E-01  1.0586400694662E+00  1.7708032067747E-01
15  1.4000000000000E-01  1.1254379814126E+00  1.9133047266106E-01
16  1.5000000000000E-01  1.1891107766171E+00  2.0569431692532E-01
17  1.6000000000000E-01  1.2494809891095E+00  2.2017195152405E-01
18  1.7000000000000E-01  1.3063807051311E+00  2.3476237294284E-01
19  1.8000000000000E-01  1.3596521983070E+00  2.4946356021666E-01
20  1.9000000000000E-01  1.4091485522350E+00  2.6427257776898E-01
21  2.0000000000000E-01  1.4547342665703E+00  2.7918569505724E-01
22  2.1000000000000E-01  1.4962858423844E+00  2.9419852077750E-01
23  2.2000000000000E-01  1.5336923423230E+00  3.0930614908448E-01
24  2.3000000000000E-01  1.5668559208855E+00  3.2450331502780E-01
25  2.4000000000000E-01  1.5956923200109E+00  3.3978455619667E-01
26  2.5000000000000E-01  1.6201313250742E+00  3.5514437740517E-01
27  2.6000000000000E-01  1.6401171763890E+00  3.7057741514469E-01
28  2.7000000000000E-01  1.6556089313729E+00  3.8607859847869E-01
29  2.8000000000000E-01  1.6665807726579E+00  4.0164330306080E-01
30  2.9000000000000E-01  1.6730222576387E+00  4.1726749502011E-01
31  3.0000000000000E-01  1.6749385052170E+00  4.3294786157712E-01
32  3.1000000000000E-01  1.6723503158486E+00  4.4868192542843E-01
33  3.2000000000000E-01  1.6652942214064E+00  4.6446814016610E-01
34  3.3000000000000E-01  1.6538224618434E+00  4.8030596427488E-01
35  3.4000000000000E-01  1.6380028861684E+00  4.9619591157357E-01
36  3.5000000000000E-01  1.6179187758258E+00  5.1213957633056E-01
37  3.6000000000000E-01  1.5936685891956E+00  5.2813963168263E-01
38  3.7000000000000E-01  1.5653656265878E+00  5.4419980041407E-01
39  3.8000000000000E-01  1.5331376157950E+00  5.6032479760376E-01
40  3.9000000000000E-01  1.4971262189767E+00  5.7652024511339E-01
41  4.0000000000000E-01  1.4574864623631E+00  5.9279255836349E-01
42  4.1000000000000E-01  1.4143860909910E+00  6.0914880631764E-01
43  4.2000000000000E-01  1.3680048513912E+00  6.2559654606112E-01
44  4.3000000000000E-01  1.3185337058426E+00  6.4214363381170E-01
45  4.4000000000000E-01  1.2661739824707E+00  6.5879801462808E-01
46  4.5000000000000E-01  1.2111364661016E+00  6.7556749348046E-01
47  4.6000000000000E-01  1.1536404353612E+00  6.9245949070991E-01
48  4.7000000000000E-01  1.0939126520465E+00  7.0948078522231E-01
49  4.8000000000000E-01  1.0321863092607E+00  7.2663724903429E-01
50  4.9000000000000E-01  9.6869994521253E-01  7.4393357700641E-01
51  5.0000000000000E-01  9.0369632991187E-01  7.6137301576011E-01
52  5.1000000000000E-01  8.3742133224592E-01  7.7895709587571E-01
53  5.2000000000000E-01  7.7012277510114E-01  7.9668537150746E-01
54  5.3000000000000E-01  7.0204928628584E-01  8.1455517152641E-01
55  5.4000000000000E-01  6.3344915302074E-01  8.3256136621329E-01
56  5.5000000000000E-01  5.6456918769208E-01  8.5069615337189E-01
57  5.6000000000000E-01  4.9565361240755E-01  8.6894886752095E-01
58  5.7000000000000E-01  4.2694296966258E-01  8.8730581555166E-01
59  5.8000000000000E-01  3.5867306611583E-01  9.0575014191309E-01
60  5.9000000000000E-01  2.9107395609354E-01  9.2426172601308E-01
61  6.0000000000000E-01  2.2436897099853E-01  9.4281711410361E-01
62  6.1000000000000E-01  1.5877380029685E-01  9.6138948746325E-01
63  6.2000000000000E-01  9.4495629202348E-02  9.7994866820217E-01
64  6.3000000000000E-01  3.1732337582843E-02  9.9846116350477E-01
65  6.4000000000000E-01 -2.9328236018010E-02  1.0168902485991E+00
66  6.5000000000000E-01 -8.8508962004604E-02  1.0351960882087E+00
67  6.6000000000000E-01 -1.4564401643116E-01  1.0533358957118E+00
68  6.7000000000000E-01 -2.0057940489094E-01  1.0712641287075E+00
69  6.8000000000000E-01 -2.5317341237676E-01  1.0889327191870E+00
70  6.9000000000000E-01 -3.0329697855863E-01  1.1062913360262E+00
71  7.0000000000000E-01 -3.5083399856592E-01  1.1232876770704E+00
72  7.1000000000000E-01 -3.9568154997330E-01  1.1398677876769E+00
73  7.2000000000000E-01 -4.3775004726502E-01  1.1559764022210E+00
74  7.3000000000000E-01 -4.7696332558378E-01  1.1715573047665E+00
75  7.4000000000000E-01 -5.1325865605203E-01  1.1865537048479E+00
76  7.5000000000000E-01 -5.4658669538091E-01  1.2009086241301E+00
77  7.6000000000000E-01 -5.7691137285008E-01  1.2145652895792E+00
78  7.7000000000000E-01 -6.0420971804844E-01  1.2274675287276E+00
79  7.8000000000000E-01 -6.2847163300897E-01  1.2395601626176E+00
80  7.9000000000000E-01 -6.4969961255006E-01  1.2507893920874E+00
81  8.0000000000000E-01 -6.6790841675131E-01  1.2611031732005E+00
82  8.1000000000000E-01 -6.8312469954597E-01  1.2704515778210E+00
83  8.2000000000000E-01 -6.9538659740702E-01  1.2787871355976E+00
84  8.3000000000000E-01 -7.0474328204382E-01  1.2860651539334E+00
85  8.4000000000000E-01 -7.1125448091598E-01  1.2922440128814E+00
86  8.5000000000000E-01 -7.1498996921586E-01  1.2972854323088E+00
87  8.6000000000000E-01 -7.1602903677759E-01  1.3011547091166E+00
88  8.7000000000000E-01 -7.1445993314619E-01  1.3038209227633E+00
89  8.8000000000000E-01 -7.1037929379115E-01  1.3052571078339E+00
90  8.9000000000000E-01 -7.0389155018466E-01  1.3054403928884E+00
91  9.0000000000000E-01 -6.9510832619139E-01  1.3043521053276E+00
92  9.1000000000000E-01 -6.8414782294367E-01  1.3019778425044E+00
93  9.2000000000000E-01 -6.7113419411031E-01  1.2983075097920E+00
94  9.3000000000000E-01 -6.5619691321635E-01  1.2933353267724E+00
95  9.4000000000000E-01 -6.3947013444250E-01  1.2870598031355E+00
96  9.5000000000000E-01 -6.2109204813208E-01  1.2794836862663E+00
97  9.6000000000000E-01 -6.0120423206713E-01  1.2706138828400E+00
98  9.7000000000000E-01 -5.7995099944676E-01  1.2604613570341E+00
99  9.8000000000000E-01 -5.5747874441572E-01  1.2490410082087E+00
100  9.9000000000000E-01 -5.3393528595043E-01  1.2363715310760E+00
101  1.0000000000000E+00 -5.0946921091600E-01  1.2224752615035E+00
102  1.0100000000000E+00 -4.8422921716154E-01  1.2073780111412E+00
103  1.0200000000000E+00 -4.5836345762079E-01  1.1911088940541E+00
104  1.0300000000000E+00 -4.3201888652984E-01  1.1737001484659E+00
105  1.0400000000000E+00 -4.0534060905975E-01  1.1551869565823E+00
106  1.0500000000000E+00 -3.7847123588563E-01  1.1356072652678E+00
107  1.0600000000000E+00 -3.5155024446886E-01  1.1150016100997E+00
108  1.0700000000000E+00 -3.2471334911140E-01  1.0934129450271E+00
109  1.0800000000000E+00 -2.9809188214175E-01  1.0708864795158E+00
110  1.0900000000000E+00 -2.7181218890381E-01  1.0474695246896E+00
111  1.1000000000000E+00 -2.4599503953600E-01  1.0232113495632E+00
112  1.1100000000000E+00 -2.2075506083682E-01  9.9816304804326E-01
113  1.1200000000000E+00 -1.9620019180905E-01  9.7237741692940E-01
114  1.1300000000000E+00 -1.7243116674609E-01  9.4590884470746E-01
115  1.1400000000000E+00 -1.4954102996351E-01  9.1881321049157E-01
116  1.1500000000000E+00 -1.2761468647717E-01  8.9114779205054E-01
117  1.1600000000000E+00 -1.0672849307830E-01  8.6297118145701E-01
118  1.1700000000000E+00 -8.6949894347740E-02  8.3434320653448E-01
119  1.1800000000000E+00 -6.8337108179593E-02  8.0532485595239E-01
120  1.1900000000000E+00 -5.0938865342681E-02  7.7597820554483E-01
121  1.2000000000000E+00 -3.4794207490178E-02  7.4636634320615E-01
122  1.2100000000000E+00 -1.9932347832365E-02  7.1655328955739E-01
123  1.2200000000000E+00 -6.3725984076469E-03  6.8660391148133E-01
124  1.2300000000000E+00  5.8756324750004E-03  6.5658382559944E-01
125  1.2400000000000E+00  1.6812769494901E-02  6.2655928881015E-01
126  1.2500000000000E+00  2.6448923684533E-02  5.9659707312942E-01
127  1.2600000000000E+00  3.4803667913828E-02  5.6676432227042E-01
128  1.2700000000000E+00  4.1905733197398E-02  5.3712838766896E-01
129  1.2800000000000E+00  4.7792625291356E-02  5.0775664200598E-01
130  1.2900000000000E+00  5.2510161873143E-02  4.7871626868988E-01
131  1.3000000000000E+00  5.6111931490215E-02  4.5007402624324E-01
132  1.3100000000000E+00  5.8658676406905E-02  4.2189598708057E-01
133  1.3200000000000E+00  6.0217602465330E-02  3.9424725076226E-01
134  1.3300000000000E+00  6.0861620099316E-02  3.6719163245934E-01
135  1.3400000000000E+00  6.0668521691504E-02  3.4079132805846E-01
136  1.3500000000000E+00  5.9720101527091E-02  3.1510655806613E-01
137  1.3600000000000E+00  5.8101225665596E-02  2.9019519322852E-01
138  1.3700000000000E+00  5.5898860119493E-02  2.6611236556521E-01
139  1.3800000000000E+00  5.3201066775720E-02  2.4291006930635E-01
140  1.3900000000000E+00  5.0095977519155E-02  2.2063675702026E-01
141  1.4000000000000E+00  4.6670758002834E-02  1.9933693701081E-01
142  1.4100000000000E+00  4.3010573450935E-02  1.7905077884536E-01
143  1.4200000000000E+00  3.9197569768178E-02  1.5981373463797E-01
144  1.4300000000000E+00  3.5309884050609E-02  1.4165618444620E-01
145  1.4400000000000E+00  3.1420699346270E-02  1.2460311484276E-01
146  1.4500000000000E+00  2.7597359188943E-02  1.0867384038570E-01
147  1.4600000000000E+00  2.3900558018633E-02  9.3881778326070E-02
148  1.4700000000000E+00  2.0383624107077E-02  8.0234287460360E-02
149  1.4800000000000E+00  1.7091912014945E-02  6.7732582543716E-02
150  1.4900000000000E+00  1.4062321922791E-02  5.6371736132713E-02
151  1.5000000000000E+00  1.1322962634643E-02  4.6140779085489E-02
152  1.5100000000000E+00  8.8929799190076E-03  3.7022915855487E-02
153  1.5200000000000E+00  6.7825540147658E-03  2.8995868243340E-02
154  1.5300000000000E+00  4.9906116112875E-03  2.2028603983676E-02
155  1.5400000000000E+00  3.5076346286347E-03  1.6085021268310E-02
156  1.5500000000000E+00  2.3223650832707E-03  1.1134163132010E-02
157  1.5600000000000E+00  1.4156136809836E-03  7.1413718458551E-03
158  1.5700000000000E+00  7.6182444118319E-04  4.0697981650976E-03
159  1.5800000000000E+00  3.3070151956051E-04  1.8824239079550E-03
160  1.5900000000000E+00  8.8070782330010E-05  5.3660378186346E-04
161  1.6000000000000E+00  3.6477317207882E-06  2.4231317914932E-05
162  1.6100000000000E+00 -7.3741699357202E-07 -5.0498832364380E-06
163  1.6200000000000E+00  2.2116577916609E-07  1.4458871015955E-06
164  1.63  0.  0.
165  1.64  0.  0.
166  1.65  0.  0.
167  1.66  0.  0.
168  1.67  0.  0.
169  1.68  0.  0.
170  1.69  0.  0.
171  1.70  0.  0.
172  1.71  0.  0.
173  1.72  0.  0.
174  1.73  0.  0.
175  1.74  0.  0.
176  1.75  0.  0.
177  1.76  0.  0.
178  1.77  0.  0.
179  1.78  0.  0.
180  1.79  0.  0.
181  1.80  0.  0.
182  1.81  0.  0.
183  1.82  0.  0.
184  1.83  0.  0.
185  1.84  0.  0.
186  1.85  0.  0.
187  1.86  0.  0.
188  1.87  0.  0.
189  1.88  0.  0.
190  1.89  0.  0.
191  1.90  0.  0.
192  1.91  0.  0.
193  1.92  0.  0.
194  1.93  0.  0.
195  1.94  0.  0.
196  1.95  0.  0.
197  1.96  0.  0.
198  1.97  0.  0.
199  1.98  0.  0.
200  1.99  0.  0.
201  2.00  0.  0.
202  2.01  0.  0.
203  2.02  0.  0.
204  2.03  0.  0.
205  2.04  0.  0.
206  2.05  0.  0.
207  2.06  0.  0.
208  2.07  0.  0.
209  2.08  0.  0.
210  2.09  0.  0.
211  2.10  0.  0.
212  2.11  0.  0.
213  2.12  0.  0.
214  2.13  0.  0.
215  2.14  0.  0.
216  2.15  0.  0.
217  2.16  0.  0.
218  2.17  0.  0.
219  2.18  0.  0.
220  2.19  0.  0.
221  2.20  0.  0.
222  2.21  0.  0.
223  2.22  0.  0.
224  2.23  0.  0.
225  2.24  0.  0.
226  2.25  0.  0.
227  2.26  0.  0.
228  2.27  0.  0.
229  2.28  0.  0.
230  2.29  0.  0.
231  2.30  0.  0.
232  2.31  0.  0.
233  2.32  0.  0.
234  2.33  0.  0.
235  2.34  0.  0.
236  2.35  0.  0.
237  2.36  0.  0.
238  2.37  0.  0.
239  2.38  0.  0.
240  2.39  0.  0.
241  2.40  0.  0.
242  2.41  0.  0.
243  2.42  0.  0.
244  2.43  0.  0.
245  2.44  0.  0.
246  2.45  0.  0.
247  2.46  0.  0.
248  2.47  0.  0.
249  2.48  0.  0.
250  2.49  0.  0.
251  2.50  0.  0.
252  2.51  0.  0.
253  2.52  0.  0.
254  2.53  0.  0.
255  2.54  0.  0.
256  2.55  0.  0.
257  2.56  0.  0.
258  2.57  0.  0.
259  2.58  0.  0.
260  2.59  0.  0.
261  2.60  0.  0.
262  2.61  0.  0.
263  2.62  0.  0.
264  2.63  0.  0.
265  2.64  0.  0.
266  2.65  0.  0.
267  2.66  0.  0.
268  2.67  0.  0.
269  2.68  0.  0.
270  2.69  0.  0.
271  2.70  0.  0.
272  2.71  0.  0.
273  2.72  0.  0.
274  2.73  0.  0.
275  2.74  0.  0.
276  2.75  0.  0.
277  2.76  0.  0.
278  2.77  0.  0.
279  2.78  0.  0.
280  2.79  0.  0.
281  2.80  0.  0.
282  2.81  0.  0.
283  2.82  0.  0.
284  2.83  0.  0.
285  2.84  0.  0.
286  2.85  0.  0.
287  2.86  0.  0.
288  2.87  0.  0.
289  2.88  0.  0.
290  2.89  0.  0.
291  2.90  0.  0.
292  2.91  0.  0.
293  2.92  0.  0.
294  2.93  0.  0.
295  2.94  0.  0.
296  2.95  0.  0.
297  2.96  0.  0.
298  2.97  0.  0.
299  2.98  0.  0.
300  2.99  0.  0.
301  3.00  0.  0.
302  3.01  0.  0.
303  3.02  0.  0.
304  3.03  0.  0.
305  3.04  0.  0.
306  3.05  0.  0.
307  3.06  0.  0.
308  3.07  0.  0.
309  3.08  0.  0.
310  3.09  0.  0.
311  3.10  0.  0.
312  3.11  0.  0.
313  3.12  0.  0.
314  3.13  0.  0.
315  3.14  0.  0.
316  3.15  0.  0.
317  3.16  0.  0.
318  3.17  0.  0.
319  3.18  0.  0.
320  3.19  0.  0.
321  3.20  0.  0.
322  3.21  0.  0.
323  3.22  0.  0.
324  3.23  0.  0.
325  3.24  0.  0.
326  3.25  0.  0.
327  3.26  0.  0.
328  3.27  0.  0.
329  3.28  0.  0.
330  3.29  0.  0.
331  3.30  0.  0.
332  3.31  0.  0.
333  3.32  0.  0.
334  3.33  0.  0.
335  3.34  0.  0.
336  3.35  0.  0.
337  3.36  0.  0.
338  3.37  0.  0.
339  3.38  0.  0.
340  3.39  0.  0.
341  3.40  0.  0.
342  3.41  0.  0.
343  3.42  0.  0.
344  3.43  0.  0.
345  3.44  0.  0.
346  3.45  0.  0.
347  3.46  0.  0.
348  3.47  0.  0.
349  3.48  0.  0.
350  3.49  0.  0.
351  3.50  0.  0.
352  3.51  0.  0.
353  3.52  0.  0.
354  3.53  0.  0.
355  3.54  0.  0.
356  3.55  0.  0.
357  3.56  0.  0.
358  3.57  0.  0.
359  3.58  0.  0.
360  3.59  0.  0.
361  3.60  0.  0.
362  3.61  0.  0.
363  3.62  0.  0.
364  3.63  0.  0.
365  3.64  0.  0.
366  3.65  0.  0.
367  3.66  0.  0.
368  3.67  0.  0.
369  3.68  0.  0.
370  3.69  0.  0.
371  3.70  0.  0.
372  3.71  0.  0.
373  3.72  0.  0.
374  3.73  0.  0.
375  3.74  0.  0.
376  3.75  0.  0.
377  3.76  0.  0.
378  3.77  0.  0.
379  3.78  0.  0.
380  3.79  0.  0.
381  3.80  0.  0.
382  3.81  0.  0.
383  3.82  0.  0.
384  3.83  0.  0.
385  3.84  0.  0.
386  3.85  0.  0.
387  3.86  0.  0.
388  3.87  0.  0.
389  3.88  0.  0.
390  3.89  0.  0.
391  3.90  0.  0.
392  3.91  0.  0.
393  3.92  0.  0.
394  3.93  0.  0.
395  3.94  0.  0.
396  3.95  0.  0.
397  3.96  0.  0.
398  3.97  0.  0.
399  3.98  0.  0.
400  3.99  0.  0.
401  4.00  0.  0.
402  4.01  0.  0.
403  4.02  0.  0.
404  4.03  0.  0.
405  4.04  0.  0.
406  4.05  0.  0.
407  4.06  0.  0.
408  4.07  0.  0.
409  4.08  0.  0.
410  4.09  0.  0.
411  4.10  0.  0.
412  4.11  0.  0.
413  4.12  0.  0.
414  4.13  0.  0.
415  4.14  0.  0.
416  4.15  0.  0.
417  4.16  0.  0.
418  4.17  0.  0.
419  4.18  0.  0.
420  4.19  0.  0.
421  4.20  0.  0.
422  4.21  0.  0.
423  4.22  0.  0.
424  4.23  0.  0.
425  4.24  0.  0.
426  4.25  0.  0.
427  4.26  0.  0.
428  4.27  0.  0.
429  4.28  0.  0.
430  4.29  0.  0.
431  4.30  0.  0.
432  4.31  0.  0.
433  4.32  0.  0.
434  4.33  0.  0.
435  4.34  0.  0.
436  4.35  0.  0.
437  4.36  0.  0.
438  4.37  0.  0.
439  4.38  0.  0.
440  4.39  0.  0.
441  4.40  0.  0.
442  4.41  0.  0.
443  4.42  0.  0.
444  4.43  0.  0.
445  4.44  0.  0.
446  4.45  0.  0.
447  4.46  0.  0.
448  4.47  0.  0.
449  4.48  0.  0.
450  4.49  0.  0.
451  4.50  0.  0.
452  4.51  0.  0.
453  4.52  0.  0.
454  4.53  0.  0.
455  4.54  0.  0.
456  4.55  0.  0.
457  4.56  0.  0.
458  4.57  0.  0.
459  4.58  0.  0.
460  4.59  0.  0.
461  4.60  0.  0.
462  4.61  0.  0.
463  4.62  0.  0.
464  4.63  0.  0.
465  4.64  0.  0.
466  4.65  0.  0.
467  4.66  0.  0.
468  4.67  0.  0.
469  4.68  0.  0.
470  4.69  0.  0.
471  4.70  0.  0.
472  4.71  0.  0.
473  4.72  0.  0.
474  4.73  0.  0.
475  4.74  0.  0.
476  4.75  0.  0.
477  4.76  0.  0.
478  4.77  0.  0.
479  4.78  0.  0.
480  4.79  0.  0.
481  4.80  0.  0.
482  4.81  0.  0.
483  4.82  0.  0.
484  4.83  0.  0.
485  4.84  0.  0.
486  4.85  0.  0.
487  4.86  0.  0.
488  4.87  0.  0.
489  4.88  0.  0.
490  4.89  0.  0.
491  4.90  0.  0.
492  4.91  0.  0.
493  4.92  0.  0.
494  4.93  0.  0.
495  4.94  0.  0.
496  4.95  0.  0.
497  4.96  0.  0.
498  4.97  0.  0.
499  4.98  0.  0.
500  4.99  0.  0.
501  5.00  0.  0.
502  5.01  0.  0.
503  5.02  0.  0.
504  5.03  0.  0.
505  5.04  0.  0.
506  5.05  0.  0.
507  5.06  0.  0.
508  5.07  0.  0.
509  5.08  0.  0.
510  5.09  0.  0.
511  5.10  0.  0.
512  5.11  0.  0.
513  5.12  0.  0.
514  5.13  0.  0.
515  5.14  0.  0.
516  5.15  0.  0.
517  5.16  0.  0.
518  5.17  0.  0.
519  5.18  0.  0.
520  5.19  0.  0.
521  5.20  0.  0.
522  5.21  0.  0.
523  5.22  0.  0.
524  5.23  0.  0.
525  5.24  0.  0.
526  5.25  0.  0.
527  5.26  0.  0.
528  5.27  0.  0.
529  5.28  0.  0.
530  5.29  0.  0.
531  5.30  0.  0.
532  5.31  0.  0.
533  5.32  0.  0.
534  5.33  0.  0.
535  5.34  0.  0.
536  5.35  0.  0.
537  5.36  0.  0.
538  5.37  0.  0.
539  5.38  0.  0.
540  5.39  0.  0.
541  5.40  0.  0.
542  5.41  0.  0.
543  5.42  0.  0.
544  5.43  0.  0.
545  5.44  0.  0.
546  5.45  0.  0.
547  5.46  0.  0.
548  5.47  0.  0.
549  5.48  0.  0.
550  5.49  0.  0.
551  5.50  0.  0.
552  5.51  0.  0.
553  5.52  0.  0.
554  5.53  0.  0.
555  5.54  0.  0.
556  5.55  0.  0.
557  5.56  0.  0.
558  5.57  0.  0.
559  5.58  0.  0.
560  5.59  0.  0.
561  5.60  0.  0.
562  5.61  0.  0.
563  5.62  0.  0.
564  5.63  0.  0.
565  5.64  0.  0.
566  5.65  0.  0.
567  5.66  0.  0.
568  5.67  0.  0.
569  5.68  0.  0.
570  5.69  0.  0.
571  5.70  0.  0.
572  5.71  0.  0.
573  5.72  0.  0.
574  5.73  0.  0.
575  5.74  0.  0.
576  5.75  0.  0.
577  5.76  0.  0.
578  5.77  0.  0.
579  5.78  0.  0.
580  5.79  0.  0.
581  5.80  0.  0.
582  5.81  0.  0.
583  5.82  0.  0.
584  5.83  0.  0.
585  5.84  0.  0.
586  5.85  0.  0.
587  5.86  0.  0.
588  5.87  0.  0.
589  5.88  0.  0.
590  5.89  0.  0.
591  5.90  0.  0.
592  5.91  0.  0.
593  5.92  0.  0.
594  5.93  0.  0.
595  5.94  0.  0.
596  5.95  0.  0.
597  5.96  0.  0.
598  5.97  0.  0.
599  5.98  0.  0.
600  5.99  0.  0.
1                         7.4078916751561E+00 -8.2455797564889E-01  6.8896039968371E-01
1  0.0000000000000E+00 -1.9851911503554E-09 -2.5876117672186E-09  4.5228428363631E-09
2  1.0000000000000E-02  2.0074939178496E-03  3.1952646349293E-04 -1.0140437148073E-03
3  2.0000000000000E-02  8.0225066731946E-03  1.2789838453575E-03 -4.0511431258892E-03
4  3.0000000000000E-02  1.8022612608875E-02  2.8809460250201E-03 -9.0961309898480E-03
5  4.0000000000000E-02  3.1970374633003E-02  5.1295040403698E-03 -1.6123491181586E-02
6  5.0000000000000E-02  4.9813256937380E-02  8.0299733535938E-03 -2.5097012206139E-02
7  6.0000000000000E-02  7.1483511129361E-02  1.1588494718811E-02 -3.5969321068841E-02
8  7.0000000000000E-02  9.6898043870456E-02  1.5811539070140E-02 -4.8681315929889E-02
9  8.0000000000000E-02  1.2595827610016E-01  2.0705329436441E-02 -6.3161520492181E-02
10  9.0000000000000E-02  1.5855000567221E-01  2.6275195195209E-02 -7.9325387058642E-02
11  1.0000000000000E-01  1.9454328670039E-01  3.2524875952681E-02 -9.7074578551636E-02
12  1.1000000000000E-01  2.3379234006500E-01  3.9455793935460E-02 -1.1629626242780E-01
13  1.2000000000000E-01  2.7613551033840E-01  4.7066314964769E-02 -1.3686245128023E-01
14  1.3000000000000E-01  3.2139528482570E-01  5.5351018829327E-02 -1.5862942594202E-01
15  1.4000000000000E-01  3.6937839046797E-01  6.4300000157535E-02 -1.8143727705712E-01
16  1.5000000000000E-01  4.1987598401287E-01  7.3898220704160E-02 -2.0510960034926E-01
17  1.6000000000000E-01  4.7266395012092E-01  8.4124933310704E-02 -2.2945337919793E-01
18  1.7000000000000E-01  5.2750332095321E-01  9.4953196681098E-02 -2.5425908564418E-01
19  1.8000000000000E-01  5.8414082929440E-01  1.0634949855421E-01 -2.7930102763529E-01
20  1.9000000000000E-01  6.4230960542707E-01  1.1827350287963E-01 -3.0433796623406E-01
21  2.0000000000000E-01  7.0173002582196E-01  1.3067793424985E-01 -3.2911402173771E-01
22  2.1000000000000E-01  7.6211071928062E-01  1.4350861015489E-01 -3.5335988226229E-01
23  2.2000000000000E-01  8.2314973350721E-01  1.5670462865609E-01 -3.7679432245333E-01
24  2.3000000000000E-01  8.8453586224465E-01  1.7019871588260E-01 -3.9912603369597E-01
25  2.4000000000000E-01  9.4595013013956E-01  1.8391773439933E-01 -4.2005576064251E-01
26  2.5000000000000E-01  1.0070674294588E+00  1.9778335004614E-01 -4.3927873218207E-01
27  2.6000000000000E-01  1.0675582997270E+00  2.1171285137419E-01 -4.5648736828292E-01
28  2.7000000000000E-01  1.1270908383484E+00  2.2562011237719E-01 -4.7137423757964E-01
29  2.8000000000000E-01  1.1853327273819E+00  2.3941668590318E-01 -4.8363523429255E-01
30  2.9000000000000E-01  1.2419533589065E+00  2.5301301200599E-01 -4.9297293718892E-01
31  3.0000000000000E-01  1.2966260389142E+00  2.6631972261990E-01 -4.9910010795275E-01
32  3.1000000000000E-01  1.3490302474365E+00  2.7924902137874E-01 -5.0174328164053E-01
33  3.2000000000000E-01  1.3988539307146E+00  2.9171611520795E-01 -5.0064639797293E-01
34  3.3000000000000E-01  1.4457957996881E+00  3.0364067254414E-01 -4.9557441914159E-01
35  3.4000000000000E-01  1.4895676079507E+00  3.1494828172406E-01 -4.8631687767396E-01
36  3.5000000000000E-01  1.5298963816315E+00  3.2557188226695E-01 -4.7269129676165E-01
37  3.6000000000000E-01  1.5665265734189E+00  3.3545314147432E-01 -4.5454642536070E-01
38  3.7000000000000E-01  1.5992221131777E+00  3.4454374900458E-01 -4.3176523134045E-01
39  3.8000000000000E-01  1.6277683283121E+00  3.5280660284958E-01 -4.0426759799520E-01
40  3.9000000000000E-01  1.6519737081954E+00  3.6021686144018E-01 -3.7201267232214E-01
41  4.0000000000000E-01  1.6716714886131E+00  3.6676283842072E-01 -3.3500081757262E-01
42  4.1000000000000E-01  1.6867210342195E+00  3.7244671893138E-01 -2.9327512764483E-01
43  4.2000000000000E-01  1.6970089994612E+00  3.7728507898515E-01 -2.4692246682749E-01
44  4.3000000000000E-01  1.7024502512428E+00  3.8130919267660E-01 -1.9607400513031E-01
45  4.4000000000000E-01  1.7029885397350E+00  3.8456511545840E-01 -1.4090522683910E-01
46  4.5000000000000E-01  1.6985969071302E+00  3.8711353550629E-01 -8.1635397883846E-02
47  4.6000000000000E-01  1.6892778277478E+00  3.8902938919608E-01 -1.8526485970519E-02
48  4.7000000000000E-01  1.6750630766402E+00  3.9040124086322E-01  4.8118463945753E-02
49  4.8000000000000E-01  1.6560133276783E+00  3.9133043123042E-01  1.1795748753162E-01
50  4.9000000000000E-01  1.6322174859293E+00  3.9193000309179E-01  1.9061237228709E-01
51  5.0000000000000E-01  1.6037917629246E+00  3.9232341695324E-01  2.6567181361284E-01
52  5.1000000000000E-01  1.5708785070705E+00  3.9264307326921E-01  3.4269501913241E-01
53  5.2000000000000E-01  1.5336448049216E+00  3.9302866160868E-01  4.2121571706894E-01
54  5.3000000000000E-01  1.4922808722530E+00  3.9362536045551E-01  5.0074651754026E-01
55  5.4000000000000E-01  1.4469982567707E+00  3.9458191433202E-01  5.8078356949472E-01
56  5.5000000000000E-01  1.3980278768386E+00  3.9604861746924E-01  6.6081145078612E-01
57  5.6000000000000E-01  1.3456179227328E+00  3.9817523527999E-01  7.4030822468226E-01
58  5.7000000000000E-01  1.2900316486105E+00  4.0110889637679E-01  8.1875059300529E-01
59  5.8000000000000E-01  1.2315450845845E+00  4.0499198878291E-01  8.9561907417878E-01
60  5.9000000000000E-01  1.1704446989919E+00  4.0996009428705E-01  9.7040313375311E-01
61  6.0000000000000E-01  1.1070250411272E+00  4.1613999457933E-01  1.0426061955176E+00
62  6.1000000000000E-01  1.0415863943791E+00  4.2364778187757E-01  1.1117504630867E+00
63  6.2000000000000E-01  9.7443246886624E-01  4.3258710521970E-01  1.1773814848436E+00
64  6.3000000000000E-01  9.0586816132843E-01  4.4304758148459E-01  1.2390723992908E+00
65  6.4000000000000E-01  8.3619740822731E-01  4.5510339754283E-01  1.2964278031251E+00
66  6.5000000000000E-01  7.6572115577227E-01  4.6881212677744E-01  1.3490871906336E+00
67  6.6000000000000E-01  6.9473546796378E-01  4.8421377960788E-01  1.3967279201850E+00
68  6.7000000000000E-01  6.2352979078344E-01  5.0133010366174E-01  1.4390676715433E+00
69  6.8000000000000E-01  5.5238538741938E-01  5.2016414494190E-01  1.4758663663107E+00
70  6.9000000000000E-01  4.8157395595846E-01  5.4070007681013E-01  1.5069275328599E+00
71  7.0000000000000E-01  4.1135643737228E-01  5.6290329893556E-01  1.5320991064735E+00
72  7.1000000000000E-01  3.4198201794208E-01  5.8672080362651E-01  1.5512736649002E+00
73  7.2000000000000E-01  2.7368732658190E-01  6.1208180226519E-01  1.5643881089868E+00
74  7.3000000000000E-01  2.0669582390122E-01  6.3889859998758E-01  1.5714228072680E+00
75  7.4000000000000E-01  1.4121737637083E-01  6.6706770238301E-01  1.5724002322315E+00
76  7.5000000000000E-01  7.7448005686624E-02  6.9647113391349E-01  1.5673831242450E+00
77  7.6000000000000E-01  1.5569800430510E-02  7.2697794405334E-01  1.5564722266839E+00
78  7.7000000000000E-01 -4.4249025534056E-02  7.5844587389591E-01  1.5398036424890E+00
79  7.8000000000000E-01 -1.0185394577078E-01  7.9072315323280E-01  1.5175458680850E+00
80  7.9000000000000E-01 -1.5710382476676E-01  8.2365039593641E-01  1.4898965651899E+00
81  8.0000000000000E-01 -2.0987053327662E-01  8.5706255991461E-01  1.4570791344619E+00
82  8.1000000000000E-01 -2.6003849745670E-01  8.9079093698830E-01  1.4193391570911E+00
83  8.2000000000000E-01 -3.0750420410231E-01  9.2466513779166E-01  1.3769407713130E+00
84  8.3000000000000E-01 -3.5217568415274E-01  9.5851503721647E-01  1.3301630503807E+00
85  8.4000000000000E-01 -3.9397199596756E-01  9.9217264701220E-01  1.2792964467923E+00
86  8.5000000000000E-01 -4.3282272871763E-01  1.0254738838932E+00  1.2246393645680E+00
87  8.6000000000000E-01 -4.6866754460073E-01  1.0582602038619E+00  1.1664949171679E+00
88  8.7000000000000E-01 -5.0145577652174E-01  1.0903800763888E+00  1.1051679233180E+00
89  8.8000000000000E-01 -5.3114609541431E-01  1.1216902755386E+00  1.0409621866803E+00
90  8.9000000000000E-01 -5.5770625858054E-01  1.1520569690347E+00  9.7417809809494E-01
91  9.0000000000000E-01 -5.8111294734701E-01  1.1813565905280E+00  9.0511059117157E-01
92  9.1000000000000E-01 -6.0135169904893E-01  1.2094764849094E+00  8.3404747349478E-01
93  9.2000000000000E-01 -6.1841693493051E-01  1.2363153212684E+00  7.6126814679096E-01
94  9.3000000000000E-01 -6.3231208206682E-01  1.2617832729807E+00  6.8704272027806E-01
95  9.4000000000000E-01 -6.4304978394794E-01  1.2858019692892E+00  6.1163151226627E-01
96  9.5000000000000E-01 -6.5065219099892E-01  1.3083042275325E+00  5.3528492609028E-01
97  9.6000000000000E-01 -6.5515131911811E-01  1.3292335797819E+00  4.5824367782031E-01
98  9.7000000000000E-01 -6.5658946137552E-01  1.3485436119612E+00  3.8073934509906E-01
99  9.8000000000000E-01 -6.5501963539269E-01  1.3661971374730E+00  3.0299519906028E-01
100  9.9000000000000E-01 -6.5050604669258E-01  1.3821652308376E+00  2.2522727475659E-01
101  1.0000000000000E+00 -6.4312454651745E-01  1.3964261498065E+00  1.4764563000597E-01
102  1.0100000000000E+00 -6.3296306131551E-01  1.4089641767700E+00  7.0455738174940E-02
103  1.0200000000000E+00 -6.2012197033100E-01  1.4197684119845E+00 -6.1400427454397E-03
104  1.0300000000000E+00 -6.0471440752806E-01  1.4288315521599E+00 -8.1940984270263E-02
105  1.0400000000000E+00 -5.8686646445019E-01  1.4361486882465E+00 -1.5674654476373E-01
106  1.0500000000000E+00 -5.6671727157482E-01  1.4417161558270E+00 -2.3035502912737E-01
107  1.0600000000000E+00 -5.4441893725441E-01  1.4455304703536E+00 -3.0256240772857E-01
108  1.0700000000000E+00 -5.2013632542573E-01  1.4475873776000E+00 -3.7316134789462E-01
109  1.0800000000000E+00 -4.9404665589090E-01  1.4478810471310E+00 -4.4194050644712E-01
110  1.0900000000000E+00 -4.6633891406998E-01  1.4464034334100E+00 -5.0868412574163E-01
111  1.1000000000000E+00 -4.3721306067017E-01  1.4431438253767E+00 -5.7317196856676E-01
112  1.1100000000000E+00 -4.0687903561096E-01  1.4380886010577E+00 -6.3517961925716E-01
113  1.1200000000000E+00 -3.7555555475641E-01  1.4312211990549E+00 -6.9447916956270E-01
114  1.1300000000000E+00 -3.4346870241863E-01  1.4225223137176E+00 -7.5084029844428E-01
115  1.1400000000000E+00 -3.1085032715745E-01  1.4119703155175E+00 -8.0403174515723E-01
116  1.1500000000000E+00 -2.7793625299259E-01  1.3995418927367E+00 -8.5382316499462E-01
117  1.1600000000000E+00 -2.4496432270121E-01  1.3852129051344E+00 -8.9998734704673E-01
118  1.1700000000000E+00 -2.1217229427163E-01  1.3689594349151E+00 -9.4230276356069E-01
119  1.1800000000000E+00 -1.7979561576880E-01  1.3507590151552E+00 -9.8055641108355E-01
120  1.1900000000000E+00 -1.4806510769972E-01  1.3305920110134E+00 -1.0145468948524E+00
121  1.2000000000000E+00 -1.1720458542120E-01  1.3084431245917E+00 -1.0440876999154E+00
122  1.2100000000000E+00 -8.7428457063491E-02  1.2843029903988E+00 -1.0690105855574E+00
123  1.2200000000000E+00 -5.8939334838877E-02  1.2581698250209E+00 -1.0891690337800E+00
124  1.2300000000000E+00 -3.1925699354908E-02  1.2300510919489E+00 -1.1044416781121E+00