Md    ONCVPSP-4.0.1  r_core=   1.10635   1.10635   1.00536   1.10635
101.0000     41.0000      231012    zatom,zion,pspd
8 -116133   3     4   600     0    pspcod,pspxc,lmax,lloc,mmax,r2well
5.99000000  2.70000000  0.00000000    rchrg fchrg qchrg
3     2     2     2     0    nproj
1     1           extension_switch
0                         2.9007291173096E+01  3.8908170747229E+00 -6.2367978122517E-01
1  0.0000000000000E+00 -5.5574311152995E-08  1.7759198422951E-07  1.1166830848897E-07
2  1.0000000000000E-02  1.6326713898735E-01 -5.3634046019262E-02  1.8641000385598E-02
3  2.0000000000000E-02  3.2535370111059E-01 -1.0586374705601E-01  3.7639806988099E-02
4  3.0000000000000E-02  4.8509416555063E-01 -1.5532002270214E-01  5.7335229963813E-02
5  4.0000000000000E-02  6.4135272304040E-01 -2.0070309007577E-01  7.8028874516194E-02
6  5.0000000000000E-02  7.9303714576227E-01 -2.4081408288956E-01  9.9968475502904E-02
7  6.0000000000000E-02  9.3911151685235E-01 -2.7458317106198E-01  1.2333347139453E-01
8  7.0000000000000E-02  1.0786075085735E+00 -3.0109323532555E-01  1.4822342566183E-01
9  8.0000000000000E-02  1.2106339537932E+00 -3.1959832887770E-01  1.7464979200008E-01
10  9.0000000000000E-02  1.3343845203883E+00 -3.2953636595321E-01  2.0253138856796E-01
11  1.0000000000000E-01  1.4491433698792E+00 -3.3053570669513E-01  2.3169380071489E-01
12  1.1000000000000E-01  1.5542887569944E+00 -3.2241554940067E-01  2.6187277714350E-01
13  1.2000000000000E-01  1.6492946028191E+00 -3.0518028513797E-01  2.9272152710117E-01
14  1.3000000000000E-01  1.7337301475421E+00 -2.7900820581109E-01  3.2382167211528E-01
15  1.4000000000000E-01  1.8072578565149E+00 -2.4423517524170E-01  3.5469746096470E-01
16  1.5000000000000E-01  1.8696298125646E+00 -2.0133406472553E-01  3.8483272663042E-01
17  1.6000000000000E-01  1.9206828758037E+00 -1.5089091189620E-01  4.1368995393561E-01
18  1.7000000000000E-01  1.9603329275557E+00 -9.3578878099928E-02  4.4073074074217E-01
19  1.8000000000000E-01  1.9885685360305E+00 -3.0131150084996E-02  4.6543687724456E-01
20  1.9000000000000E-01  2.0054443871928E+00  3.8686046245307E-02  4.8733123936402E-01
21  2.0000000000000E-01  2.0110748147000E+00  1.1209917980546E-01  5.0599769459756E-01
22  2.1000000000000E-01  2.0056277383069E+00  1.8935083161836E-01  5.2109925183295E-01
23  2.2000000000000E-01  1.9893192818666E+00  2.6971985182288E-01  5.3239374931471E-01
24  2.3000000000000E-01  1.9624092917117E+00  3.5253747346600E-01  5.3974646470938E-01
25  2.4000000000000E-01  1.9251979160200E+00  4.3719879383863E-01  5.4313914459220E-01
26  2.5000000000000E-01  1.8780233384247E+00  5.2316925259337E-01  5.4267508327156E-01
27  2.6000000000000E-01  1.8212606876268E+00  6.0998596984472E-01  5.3858002755109E-01
28  2.7000000000000E-01  1.7553220722935E+00  6.9725404691379E-01  5.3119883913393E-01
29  2.8000000000000E-01  1.6806576203424E+00  7.8463816709526E-01  5.2098800391102E-01
30  2.9000000000000E-01  1.5977573369986E+00  8.7185005371105E-01  5.0850423127948E-01
31  3.0000000000000E-01  1.5071535397300E+00  9.5863253828766E-01  4.9438953099904E-01
32  3.1000000000000E-01  1.4094235829528E+00  1.0447411544445E+00  4.7935328438591E-01
33  3.2000000000000E-01  1.3051925534109E+00  1.1299242958704E+00  4.6415193595345E-01
34  3.3000000000000E-01  1.1951355999944E+00  1.2139030541080E+00  4.4956701681248E-01
35  3.4000000000000E-01  1.0799795604668E+00  1.2963518801711E+00  4.3638226907592E-01
36  3.5000000000000E-01  9.6050356242295E-01  1.3768811917646E+00  4.2536066909010E-01
37  3.6000000000000E-01  8.3753830643880E-01  1.4550229756770E+00  4.1722214561157E-01
38  3.7000000000000E-01  7.1196378472788E-01  1.5302203154814E+00  4.1262275732172E-01
39  3.8000000000000E-01  5.8470524698725E-01  1.6018216127824E+00  4.1213603376979E-01
40  3.9000000000000E-01  4.5672729421619E-01  1.6690800724285E+00  4.1623709750085E-01
41  4.0000000000000E-01  3.2902605834978E-01  1.7311587965207E+00  4.2529007632488E-01
42  4.1000000000000E-01  2.0261950742443E-01  1.7871415880284E+00  4.3953918783343E-01
43  4.2000000000000E-01  7.8535999295828E-02  1.8360493125629E+00  4.5910373846764E-01
44  4.3000000000000E-01 -4.2198711833183E-02  1.8768614169609E+00  4.8397713226168E-01
45  4.4000000000000E-01 -1.5857573609261E-01  1.9085419663433E+00  5.1402983563637E-01
46  4.5000000000000E-01 -2.6961822890149E-01  1.9300693473366E+00  5.4901610013246E-01
47  4.6000000000000E-01 -3.7439709002787E-01  1.9404686033407E+00  5.8858411035009E-01
48  4.7000000000000E-01 -4.7204673752659E-01  1.9388452259800E+00  6.3228910475303E-01
49  4.8000000000000E-01 -5.6178048838936E-01  1.9244191314373E+00  6.7960891691032E-01
50  4.9000000000000E-01 -6.4290507018710E-01  1.8965575055817E+00  7.2996130784843E-01
51  5.0000000000000E-01 -7.1483379839809E-01  1.8548052099241E+00  7.8272240918012E-01
52  5.1000000000000E-01 -7.7709798234209E-01  1.7989115015470E+00  8.3724557318761E-01
53  5.2000000000000E-01 -8.2935616780207E-01  1.7288519321067E+00  8.9287993056216E-01
54  5.3000000000000E-01 -8.7140088494622E-01  1.6448444496029E+00  9.4898798840898E-01
55  5.4000000000000E-01 -9.0316264385825E-01  1.5473589256341E+00  1.0049616586653E+00
56  5.5000000000000E-01 -9.2471100411189E-01  1.4371195625080E+00  1.0602361874999E+00
57  5.6000000000000E-01 -9.3625263621476E-01  1.3150998896258E+00  1.1143015559107E+00
58  5.7000000000000E-01 -9.3812638793890E-01  1.1825103268749E+00  1.1667110362269E+00
59  5.8000000000000E-01 -9.3079546393330E-01  1.0407785636479E+00  1.2170867136316E+00
60  5.9000000000000E-01 -9.1483691895531E-01  8.9152326477286E-01  1.2651219108805E+00
61  6.0000000000000E-01 -8.9092875008992E-01  7.3652185868911E-01  1.3105805827333E+00
62  6.1000000000000E-01 -8.5983494825437E-01  5.7767337898639E-01  1.3532938689758E+00
63  6.2000000000000E-01 -8.2238893133762E-01  4.1695750952918E-01  1.3931541063511E+00
64  6.3000000000000E-01 -7.7947582824974E-01  2.5639111889253E-01  1.4301066958419E+00
65  6.4000000000000E-01 -7.3201411331889E-01  9.7983656646976E-02  1.4641402988410E+00
66  6.5000000000000E-01 -6.8093710291298E-01 -5.6307180949012E-02  1.4952758909645E+00
67  6.6000000000000E-01 -6.2717482062115E-01 -2.0461812605378E-01  1.5235552337005E+00
68  6.7000000000000E-01 -5.7163671426046E-01 -3.4522003475500E-01  1.5490293308543E+00
69  6.8000000000000E-01 -5.1519566850329E-01 -4.7655340045931E-01  1.5717474190140E+00
70  6.9000000000000E-01 -4.5867370279963E-01 -5.9725864386937E-01  1.5917470001811E+00
71  7.0000000000000E-01 -4.0282967779100E-01 -7.0620033611918E-01  1.6090453624218E+00
72  7.1000000000000E-01 -3.4834925729241E-01 -8.0248473806862E-01  1.6236329538614E+00
73  7.2000000000000E-01 -2.9583729021189E-01 -8.8547028461864E-01  1.6354688802771E+00
74  7.3000000000000E-01 -2.4581269068831E-01 -9.5477089856584E-01  1.6444786911699E+00
75  7.4000000000000E-01 -1.9870580855691E-01 -1.0102522739993E+00  1.6505545081696E+00
76  7.5000000000000E-01 -1.5485819917509E-01 -1.0520215148981E+00  1.6535574377485E+00
77  7.6000000000000E-01 -1.1452462466064E-01 -1.0804107412455E+00  1.6533221023286E+00
78  7.7000000000000E-01 -7.7877050384447E-02 -1.0959554744114E+00  1.6496630246055E+00
79  7.8000000000000E-01 -4.5010343390987E-02 -1.0993687787255E+00  1.6423825136053E+00
80  7.9000000000000E-01 -1.5949335084881E-02 -1.0915122614591E+00  1.6312796314439E+00
81  8.0000000000000E-01  9.3431196926182E-03 -1.0733651147371E+00  1.6161597702393E+00
82  8.1000000000000E-01  3.0957470427765E-02 -1.0459924177737E+00  1.5968443416848E+00
83  8.2000000000000E-01  4.9028569035438E-02 -1.0105139053614E+00  1.5731800792850E+00
84  8.3000000000000E-01  6.3726907228985E-02 -9.6807434934236E-01  1.5450474763277E+00
85  8.4000000000000E-01  7.5250333375995E-02 -9.1981659575593E-01  1.5123679317547E+00
86  8.5000000000000E-01  8.3816547208867E-02 -8.6685815446343E-01  1.4751092510298E+00
87  8.6000000000000E-01  8.9656617034203E-02 -8.1027205403146E-01  1.4332892491755E+00
88  8.7000000000000E-01  9.3009699872215E-02 -7.5107245672552E-01  1.3869773272283E+00
89  8.8000000000000E-01  9.4119071650158E-02 -6.9020528089925E-01  1.3362940400506E+00
90  8.9000000000000E-01  9.3229493470076E-02 -6.2854380492420E-01  1.2814088411852E+00
91  9.0000000000000E-01  9.0585852142248E-02 -5.6688893152943E-01  1.2225363777082E+00
92  9.1000000000000E-01  8.6432919375466E-02 -5.0597347655587E-01  1.1599319134612E+00
93  9.2000000000000E-01  8.1015974585334E-02 -4.4646951304022E-01  1.0938866815139E+00
94  9.3000000000000E-01  7.4581931078215E-02 -3.8899745017596E-01  1.0247242055421E+00
95  9.4000000000000E-01  6.7380493710078E-02 -3.3413515543525E-01  9.5279888479976E-01
96  9.5000000000000E-01  5.9664756746352E-02 -2.8242503364478E-01  8.7849840891559E-01
97  9.6000000000000E-01  5.1690521769323E-02 -2.3437655420113E-01  8.0225185773711E-01
98  9.7000000000000E-01  4.3713474604367E-02 -1.9046125988952E-01  7.2454564968888E-01
99  9.8000000000000E-01  3.5983204534854E-02 -1.5109678996622E-01  6.4594983157338E-01
100  9.9000000000000E-01  2.8732874051325E-02 -1.1661589219529E-01  5.6715756290996E-01
101  1.0000000000000E+00  2.2163166300759E-02 -8.7215843512610E-02  4.8904092277985E-01
102  1.0100000000000E+00  1.6418957396570E-02 -6.2883179992733E-02  4.1272629244333E-01
103  1.0200000000000E+00  1.1572467921739E-02 -4.3351529249847E-02  3.3959078479707E-01
104  1.0300000000000E+00  7.6463240652909E-03 -2.8221834679685E-02  2.7100458423815E-01
105  1.0400000000000E+00  4.6266239530960E-03 -1.7029638688354E-02  2.0820916772372E-01
106  1.0500000000000E+00  2.4638460347775E-03 -9.2577841453525E-03  1.5229958151135E-01
107  1.0600000000000E+00  1.0253503003457E-03 -4.2098479378135E-03  1.0416033953867E-01
108  1.0700000000000E+00  1.7397229234499E-04 -1.2360335298653E-03  6.4523051265094E-02
109  1.0800000000000E+00 -1.7851142021991E-04  1.0189190875298E-04  3.4025716959253E-02
110  1.0900000000000E+00 -1.8345312232439E-04  3.4210625910898E-04  1.3104338514541E-02
111  1.1000000000000E+00 -4.6554048989475E-05  9.9169803733656E-05  1.9758546390928E-03
112  1.1100000000000E+00  2.8949129164969E-06 -6.4179424660692E-06 -9.2553601520807E-05
113  1.1200000000000E+00  2.4778997811019E-08 -5.2825916872248E-08 -1.0547264504358E-06
114  1.13 -0.  0. -0.
115  1.14  0.  0.  0.
116  1.15  0.  0.  0.
117  1.16  0.  0.  0.
118  1.17  0.  0.  0.
119  1.18  0.  0.  0.
120  1.19  0.  0.  0.
121  1.20  0.  0.  0.
122  1.21  0.  0.  0.
123  1.22  0.  0.  0.
124  1.23  0.  0.  0.
125  1.24  0.  0.  0.
126  1.25  0.  0.  0.
127  1.26  0.  0.  0.
128  1.27  0.  0.  0.
129  1.28  0.  0.  0.
130  1.29  0.  0.  0.
131  1.30  0.  0.  0.
132  1.31  0.  0.  0.
133  1.32  0.  0.  0.
134  1.33  0.  0.  0.
135  1.34  0.  0.  0.
136  1.35  0.  0.  0.
137  1.36  0.  0.  0.
138  1.37  0.  0.  0.
139  1.38  0.  0.  0.
140  1.39  0.  0.  0.
141  1.40  0.  0.  0.
142  1.41  0.  0.  0.
143  1.42  0.  0.  0.
144  1.43  0.  0.  0.
145  1.44  0.  0.  0.
146  1.45  0.  0.  0.
147  1.46  0.  0.  0.
148  1.47  0.  0.  0.
149  1.48  0.  0.  0.
150  1.49  0.  0.  0.
151  1.50  0.  0.  0.
152  1.51  0.  0.  0.
153  1.52  0.  0.  0.
154  1.53  0.  0.  0.
155  1.54  0.  0.  0.
156  1.55  0.  0.  0.
157  1.56  0.  0.  0.
158  1.57  0.  0.  0.
159  1.58  0.  0.  0.
160  1.59  0.  0.  0.
161  1.60  0.  0.  0.
162  1.61  0.  0.  0.
163  1.62  0.  0.  0.
164  1.63  0.  0.  0.
165  1.64  0.  0.  0.
166  1.65  0.  0.  0.
167  1.66  0.  0.  0.
168  1.67  0.  0.  0.
169  1.68  0.  0.  0.
170  1.69  0.  0.  0.
171  1.70  0.  0.  0.
172  1.71  0.  0.  0.
173  1.72  0.  0.  0.
174  1.73  0.  0.  0.
175  1.74  0.  0.  0.
176  1.75  0.  0.  0.
177  1.76  0.  0.  0.
178  1.77  0.  0.  0.
179  1.78  0.  0.  0.
180  1.79  0.  0.  0.
181  1.80  0.  0.  0.
182  1.81  0.  0.  0.
183  1.82  0.  0.  0.
184  1.83  0.  0.  0.
185  1.84  0.  0.  0.
186  1.85  0.  0.  0.
187  1.86  0.  0.  0.
188  1.87  0.  0.  0.
189  1.88  0.  0.  0.
190  1.89  0.  0.  0.
191  1.90  0.  0.  0.
192  1.91  0.  0.  0.
193  1.92  0.  0.  0.
194  1.93  0.  0.  0.
195  1.94  0.  0.  0.
196  1.95  0.  0.  0.
197  1.96  0.  0.  0.
198  1.97  0.  0.  0.
199  1.98  0.  0.  0.
200  1.99  0.  0.  0.
201  2.00  0.  0.  0.
202  2.01  0.  0.  0.
203  2.02  0.  0.  0.
204  2.03  0.  0.  0.
205  2.04  0.  0.  0.
206  2.05  0.  0.  0.
207  2.06  0.  0.  0.
208  2.07  0.  0.  0.
209  2.08  0.  0.  0.
210  2.09  0.  0.  0.
211  2.10  0.  0.  0.
212  2.11  0.  0.  0.
213  2.12  0.  0.  0.
214  2.13  0.  0.  0.
215  2.14  0.  0.  0.
216  2.15  0.  0.  0.
217  2.16  0.  0.  0.
218  2.17  0.  0.  0.
219  2.18  0.  0.  0.
220  2.19  0.  0.  0.
221  2.20  0.  0.  0.
222  2.21  0.  0.  0.
223  2.22  0.  0.  0.
224  2.23  0.  0.  0.
225  2.24  0.  0.  0.
226  2.25  0.  0.  0.
227  2.26  0.  0.  0.
228  2.27  0.  0.  0.
229  2.28  0.  0.  0.
230  2.29  0.  0.  0.
231  2.30  0.  0.  0.
232  2.31  0.  0.  0.
233  2.32  0.  0.  0.
234  2.33  0.  0.  0.
235  2.34  0.  0.  0.
236  2.35  0.  0.  0.
237  2.36  0.  0.  0.
238  2.37  0.  0.  0.
239  2.38  0.  0.  0.
240  2.39  0.  0.  0.
241  2.40  0.  0.  0.
242  2.41  0.  0.  0.
243  2.42  0.  0.  0.
244  2.43  0.  0.  0.
245  2.44  0.  0.  0.
246  2.45  0.  0.  0.
247  2.46  0.  0.  0.
248  2.47  0.  0.  0.
249  2.48  0.  0.  0.
250  2.49  0.  0.  0.
251  2.50  0.  0.  0.
252  2.51  0.  0.  0.
253  2.52  0.  0.  0.
254  2.53  0.  0.  0.
255  2.54  0.  0.  0.
256  2.55  0.  0.  0.
257  2.56  0.  0.  0.
258  2.57  0.  0.  0.
259  2.58  0.  0.  0.
260  2.59  0.  0.  0.
261  2.60  0.  0.  0.
262  2.61  0.  0.  0.
263  2.62  0.  0.  0.
264  2.63  0.  0.  0.
265  2.64  0.  0.  0.
266  2.65  0.  0.  0.
267  2.66  0.  0.  0.
268  2.67  0.  0.  0.
269  2.68  0.  0.  0.
270  2.69  0.  0.  0.
271  2.70  0.  0.  0.
272  2.71  0.  0.  0.
273  2.72  0.  0.  0.
274  2.73  0.  0.  0.
275  2.74  0.  0.  0.
276  2.75  0.  0.  0.
277  2.76  0.  0.  0.
278  2.77  0.  0.  0.
279  2.78  0.  0.  0.
280  2.79  0.  0.  0.
281  2.80  0.  0.  0.
282  2.81  0.  0.  0.
283  2.82  0.  0.  0.
284  2.83  0.  0.  0.
285  2.84  0.  0.  0.
286  2.85  0.  0.  0.
287  2.86  0.  0.  0.
288  2.87  0.  0.  0.
289  2.88  0.  0.  0.
290  2.89  0.  0.  0.
291  2.90  0.  0.  0.
292  2.91  0.  0.  0.
293  2.92  0.  0.  0.
294  2.93  0.  0.  0.
295  2.94  0.  0.  0.
296  2.95  0.  0.  0.
297  2.96  0.  0.  0.
298  2.97  0.  0.  0.
299  2.98  0.  0.  0.
300  2.99  0.  0.  0.
301  3.00  0.  0.  0.
302  3.01  0.  0.  0.
303  3.02  0.  0.  0.
304  3.03  0.  0.  0.
305  3.04  0.  0.  0.
306  3.05  0.  0.  0.
307  3.06  0.  0.  0.
308  3.07  0.  0.  0.
309  3.08  0.  0.  0.
310  3.09  0.  0.  0.
311  3.10  0.  0.  0.
312  3.11  0.  0.  0.
313  3.12  0.  0.  0.
314  3.13  0.  0.  0.
315  3.14  0.  0.  0.
316  3.15  0.  0.  0.
317  3.16  0.  0.  0.
318  3.17  0.  0.  0.
319  3.18  0.  0.  0.
320  3.19  0.  0.  0.
321  3.20  0.  0.  0.
322  3.21  0.  0.  0.
323  3.22  0.  0.  0.
324  3.23  0.  0.  0.
325  3.24  0.  0.  0.
326  3.25  0.  0.  0.
327  3.26  0.  0.  0.
328  3.27  0.  0.  0.
329  3.28  0.  0.  0.
330  3.29  0.  0.  0.
331  3.30  0.  0.  0.
332  3.31  0.  0.  0.
333  3.32  0.  0.  0.
334  3.33  0.  0.  0.
335  3.34  0.  0.  0.
336  3.35  0.  0.  0.
337  3.36  0.  0.  0.
338  3.37  0.  0.  0.
339  3.38  0.  0.  0.
340  3.39  0.  0.  0.
341  3.40  0.  0.  0.
342  3.41  0.  0.  0.
343  3.42  0.  0.  0.
344  3.43  0.  0.  0.
345  3.44  0.  0.  0.
346  3.45  0.  0.  0.
347  3.46  0.  0.  0.
348  3.47  0.  0.  0.
349  3.48  0.  0.  0.
350  3.49  0.  0.  0.
351  3.50  0.  0.  0.
352  3.51  0.  0.  0.
353  3.52  0.  0.  0.
354  3.53  0.  0.  0.
355  3.54  0.  0.  0.
356  3.55  0.  0.  0.
357  3.56  0.  0.  0.
358  3.57  0.  0.  0.
359  3.58  0.  0.  0.
360  3.59  0.  0.  0.
361  3.60  0.  0.  0.
362  3.61  0.  0.  0.
363  3.62  0.  0.  0.
364  3.63  0.  0.  0.
365  3.64  0.  0.  0.
366  3.65  0.  0.  0.
367  3.66  0.  0.  0.
368  3.67  0.  0.  0.
369  3.68  0.  0.  0.
370  3.69  0.  0.  0.
371  3.70  0.  0.  0.
372  3.71  0.  0.  0.
373  3.72  0.  0.  0.
374  3.73  0.  0.  0.
375  3.74  0.  0.  0.
376  3.75  0.  0.  0.
377  3.76  0.  0.  0.
378  3.77  0.  0.  0.
379  3.78  0.  0.  0.
380  3.79  0.  0.  0.
381  3.80  0.  0.  0.
382  3.81  0.  0.  0.
383  3.82  0.  0.  0.
384  3.83  0.  0.  0.
385  3.84  0.  0.  0.
386  3.85  0.  0.  0.
387  3.86  0.  0.  0.
388  3.87  0.  0.  0.
389  3.88  0.  0.  0.
390  3.89  0.  0.  0.
391  3.90  0.  0.  0.
392  3.91  0.  0.  0.
393  3.92  0.  0.  0.
394  3.93  0.  0.  0.
395  3.94  0.  0.  0.
396  3.95  0.  0.  0.
397  3.96  0.  0.  0.
398  3.97  0.  0.  0.
399  3.98  0.  0.  0.
400  3.99  0.  0.  0.
401  4.00  0.  0.  0.
402  4.01  0.  0.  0.
403  4.02  0.  0.  0.
404  4.03  0.  0.  0.
405  4.04  0.  0.  0.
406  4.05  0.  0.  0.
407  4.06  0.  0.  0.
408  4.07  0.  0.  0.
409  4.08  0.  0.  0.
410  4.09  0.  0.  0.
411  4.10  0.  0.  0.
412  4.11  0.  0.  0.
413  4.12  0.  0.  0.
414  4.13  0.  0.  0.
415  4.14  0.  0.  0.
416  4.15  0.  0.  0.
417  4.16  0.  0.  0.
418  4.17  0.  0.  0.
419  4.18  0.  0.  0.
420  4.19  0.  0.  0.
421  4.20  0.  0.  0.
422  4.21  0.  0.  0.
423  4.22  0.  0.  0.
424  4.23  0.  0.  0.
425  4.24  0.  0.  0.
426  4.25  0.  0.  0.
427  4.26  0.  0.  0.
428  4.27  0.  0.  0.
429  4.28  0.  0.  0.
430  4.29  0.  0.  0.
431  4.30  0.  0.  0.
432  4.31  0.  0.  0.
433  4.32  0.  0.  0.
434  4.33  0.  0.  0.
435  4.34  0.  0.  0.
436  4.35  0.  0.  0.
437  4.36  0.  0.  0.
438  4.37  0.  0.  0.
439  4.38  0.  0.  0.
440  4.39  0.  0.  0.
441  4.40  0.  0.  0.
442  4.41  0.  0.  0.
443  4.42  0.  0.  0.
444  4.43  0.  0.  0.
445  4.44  0.  0.  0.
446  4.45  0.  0.  0.
447  4.46  0.  0.  0.
448  4.47  0.  0.  0.
449  4.48  0.  0.  0.
450  4.49  0.  0.  0.
451  4.50  0.  0.  0.
452  4.51  0.  0.  0.
453  4.52  0.  0.  0.
454  4.53  0.  0.  0.
455  4.54  0.  0.  0.
456  4.55  0.  0.  0.
457  4.56  0.  0.  0.
458  4.57  0.  0.  0.
459  4.58  0.  0.  0.
460  4.59  0.  0.  0.
461  4.60  0.  0.  0.
462  4.61  0.  0.  0.
463  4.62  0.  0.  0.
464  4.63  0.  0.  0.
465  4.64  0.  0.  0.
466  4.65  0.  0.  0.
467  4.66  0.  0.  0.
468  4.67  0.  0.  0.
469  4.68  0.  0.  0.
470  4.69  0.  0.  0.
471  4.70  0.  0.  0.
472  4.71  0.  0.  0.
473  4.72  0.  0.  0.
474  4.73  0.  0.  0.
475  4.74  0.  0.  0.
476  4.75  0.  0.  0.
477  4.76  0.  0.  0.
478  4.77  0.  0.  0.
479  4.78  0.  0.  0.
480  4.79  0.  0.  0.
481  4.80  0.  0.  0.
482  4.81  0.  0.  0.
483  4.82  0.  0.  0.
484  4.83  0.  0.  0.
485  4.84  0.  0.  0.
486  4.85  0.  0.  0.
487  4.86  0.  0.  0.
488  4.87  0.  0.  0.
489  4.88  0.  0.  0.
490  4.89  0.  0.  0.
491  4.90  0.  0.  0.
492  4.91  0.  0.  0.
493  4.92  0.  0.  0.
494  4.93  0.  0.  0.
495  4.94  0.  0.  0.
496  4.95  0.  0.  0.
497  4.96  0.  0.  0.
498  4.97  0.  0.  0.
499  4.98  0.  0.  0.
500  4.99  0.  0.  0.
501  5.00  0.  0.  0.
502  5.01  0.  0.  0.
503  5.02  0.  0.  0.
504  5.03  0.  0.  0.
505  5.04  0.  0.  0.
506  5.05  0.  0.  0.
507  5.06  0.  0.  0.
508  5.07  0.  0.  0.
509  5.08  0.  0.  0.
510  5.09  0.  0.  0.
511  5.10  0.  0.  0.
512  5.11  0.  0.  0.
513  5.12  0.  0.  0.
514  5.13  0.  0.  0.
515  5.14  0.  0.  0.
516  5.15  0.  0.  0.
517  5.16  0.  0.  0.
518  5.17  0.  0.  0.
519  5.18  0.  0.  0.
520  5.19  0.  0.  0.
521  5.20  0.  0.  0.
522  5.21  0.  0.  0.
523  5.22  0.  0.  0.
524  5.23  0.  0.  0.
525  5.24  0.  0.  0.
526  5.25  0.  0.  0.
527  5.26  0.  0.  0.
528  5.27  0.  0.  0.
529  5.28  0.  0.  0.
530  5.29  0.  0.  0.
531  5.30  0.  0.  0.
532  5.31  0.  0.  0.
533  5.32  0.  0.  0.
534  5.33  0.  0.  0.
535  5.34  0.  0.  0.
536  5.35  0.  0.  0.
537  5.36  0.  0.  0.
538  5.37  0.  0.  0.
539  5.38  0.  0.  0.
540  5.39  0.  0.  0.
541  5.40  0.  0.  0.
542  5.41  0.  0.  0.
543  5.42  0.  0.  0.
544  5.43  0.  0.  0.
545  5.44  0.  0.  0.
546  5.45  0.  0.  0.
547  5.46  0.  0.  0.
548  5.47  0.  0.  0.
549  5.48  0.  0.  0.
550  5.49  0.  0.  0.
551  5.50  0.  0.  0.
552  5.51  0.  0.  0.
553  5.52  0.  0.  0.
554  5.53  0.  0.  0.
555  5.54  0.  0.  0.
556  5.55  0.  0.  0.
557  5.56  0.  0.  0.
558  5.57  0.  0.  0.
559  5.58  0.  0.  0.
560  5.59  0.  0.  0.
561  5.60  0.  0.  0.
562  5.61  0.  0.  0.
563  5.62  0.  0.  0.
564  5.63  0.  0.  0.
565  5.64  0.  0.  0.
566  5.65  0.  0.  0.
567  5.66  0.  0.  0.
568  5.67  0.  0.  0.
569  5.68  0.  0.  0.
570  5.69  0.  0.  0.
571  5.70  0.  0.  0.
572  5.71  0.  0.  0.
573  5.72  0.  0.  0.
574  5.73  0.  0.  0.
575  5.74  0.  0.  0.
576  5.75  0.  0.  0.
577  5.76  0.  0.  0.
578  5.77  0.  0.  0.
579  5.78  0.  0.  0.
580  5.79  0.  0.  0.
581  5.80  0.  0.  0.
582  5.81  0.  0.  0.
583  5.82  0.  0.  0.
584  5.83  0.  0.  0.
585  5.84  0.  0.  0.
586  5.85  0.  0.  0.
587  5.86  0.  0.  0.
588  5.87  0.  0.  0.
589  5.88  0.  0.  0.
590  5.89  0.  0.  0.
591  5.90  0.  0.  0.
592  5.91  0.  0.  0.
593  5.92  0.  0.  0.
594  5.93  0.  0.  0.
595  5.94  0.  0.  0.
596  5.95  0.  0.  0.
597  5.96  0.  0.  0.
598  5.97  0.  0.  0.
599  5.98  0.  0.  0.
600  5.99  0.  0.  0.
1                         1.0391756698226E+01 -4.2911418303164E-01
1  0.0000000000000E+00 -5.5384615782472E-09 -9.5856510819170E-08
2  1.0000000000000E-02  4.6891822824693E-03  8.3030874406515E-04
3  2.0000000000000E-02  1.8715536082830E-02  3.3406200790201E-03
4  3.0000000000000E-02  4.1955695098882E-02  7.5876029538380E-03
5  4.0000000000000E-02  7.4204763781358E-02  1.3660821542379E-02
6  5.0000000000000E-02  1.1517740862568E-01  2.1675652765341E-02
7  6.0000000000000E-02  1.6450942242273E-01  3.1763847547456E-02
8  7.0000000000000E-02  2.2175979498497E-01  4.4062188364527E-02
9  8.0000000000000E-02  2.8641332940283E-01  5.8699791491406E-02
10  9.0000000000000E-02  3.5788384563884E-01  7.5784674983534E-02
11  1.0000000000000E-01  4.3551801287328E-01  9.5390259620515E-02
12  1.1000000000000E-01  5.1859984825188E-01  1.1754248767429E-01
13  1.2000000000000E-01  6.0635591248168E-01  1.4220823245971E-01
14  1.3000000000000E-01  6.9796122215873E-01  1.6928563039421E-01
15  1.4000000000000E-01  7.9254588502959E-01  1.9859689815174E-01
16  1.5000000000000E-01  8.8920244797401E-01  2.2988410300201E-01
17  1.6000000000000E-01  9.8699392887078E-01  2.6280823819722E-01
18  1.7000000000000E-01  1.0849624833103E+00  2.9695182183782E-01
19  1.8000000000000E-01  1.1821386360783E+00  3.3182509229882E-01
20  1.9000000000000E-01  1.2775509862508E+00  3.6687572185367E-01
21  2.0000000000000E-01  1.3702362744436E+00  4.0150181873161E-01
22  2.1000000000000E-01  1.4592496820850E+00  4.3506784270387E-01
23  2.2000000000000E-01  1.5436752163280E+00  4.6692292645219E-01
24  2.3000000000000E-01  1.6226360211323E+00  4.9642098005486E-01
25  2.4000000000000E-01  1.6953044457689E+00  5.2294186390805E-01
26  2.5000000000000E-01  1.7609116970570E+00  5.4591285040483E-01
27  2.6000000000000E-01  1.8187569014109E+00  5.6482955981632E-01
28  2.7000000000000E-01  1.8682154074730E+00  5.7927555298025E-01
29  2.8000000000000E-01  1.9087461697766E+00  5.8893979326812E-01
30  2.9000000000000E-01  1.9398980683791E+00  5.9363125222959E-01
31  3.0000000000000E-01  1.9613150384144E+00  5.9329002535945E-01
32  3.1000000000000E-01  1.9727399065469E+00  5.8799444341930E-01
33  3.2000000000000E-01  1.9740168577161E+00  5.7796380635684E-01
34  3.3000000000000E-01  1.9650924845737E+00  5.6355652581308E-01
35  3.4000000000000E-01  1.9460154027392E+00  5.4526363242564E-01
36  3.5000000000000E-01  1.9169344464823E+00  5.2369777900910E-01
37  3.6000000000000E-01  1.8780954906779E+00  4.9957804332111E-01
38  3.7000000000000E-01  1.8298369748758E+00  4.7371099758750E-01
39  3.8000000000000E-01  1.7725842331049E+00  4.4696865960703E-01
40  3.9000000000000E-01  1.7068427577119E+00  4.2026406596865E-01
41  4.0000000000000E-01  1.6331905463154E+00  3.9452530636768E-01
42  4.1000000000000E-01  1.5522696971958E+00  3.7066892489415E-01
43  4.2000000000000E-01  1.4647774296585E+00  3.4957362639564E-01
44  4.3000000000000E-01  1.3714567117891E+00  3.3205522184977E-01
45  4.4000000000000E-01  1.2730866784731E+00  3.1884370582728E-01
46  4.5000000000000E-01  1.1704730176649E+00  3.1056328278254E-01
47  4.6000000000000E-01  1.0644384929624E+00  3.0771604972168E-01
48  4.7000000000000E-01  9.5581375605474E-01  3.1066990479786E-01
49  4.8000000000000E-01  8.4542858420968E-01  3.1965108981594E-01
50  4.9000000000000E-01  7.3410365645064E-01  3.3474159578484E-01
51  5.0000000000000E-01  6.2264295834227E-01  3.5588147160435E-01
52  5.1000000000000E-01  5.1182688033574E-01  3.8287588430290E-01
53  5.2000000000000E-01  4.0240604943343E-01  4.1540659273820E-01
54  5.3000000000000E-01  2.9509590951750E-01  4.5304732301036E-01
55  5.4000000000000E-01  1.9057204300400E-01  4.9528238025204E-01
56  5.5000000000000E-01  8.9466206392594E-02  5.4152770444997E-01
57  5.6000000000000E-01 -7.6369644802868E-03  5.9115348298448E-01
58  5.7000000000000E-01 -1.0020263653624E-01  6.4350737385318E-01
59  5.8000000000000E-01 -1.8774791451098E-01  6.9793737380625E-01
60  5.9000000000000E-01 -2.6984349865957E-01  7.5381338601095E-01
61  6.0000000000000E-01 -3.4611493440441E-01  8.1054660184486E-01
62  6.1000000000000E-01 -4.1624351858412E-01  8.6760590879686E-01
63  6.2000000000000E-01 -4.7996691851389E-01  9.2453066742834E-01
64  6.3000000000000E-01 -5.3707954841631E-01  9.8093935964924E-01
65  6.4000000000000E-01 -5.8743273369039E-01  1.0365337916761E+00
66  6.5000000000000E-01 -6.3093467783847E-01  1.0910987304334E+00
67  6.6000000000000E-01 -6.6755023062952E-01  1.1444970536299E+00
68  6.7000000000000E-01 -6.9730044024143E-01  1.1966606927217E+00
69  6.8000000000000E-01 -7.2026185768304E-01  1.2475778359128E+00
70  6.9000000000000E-01 -7.3656554967803E-01  1.2972770270754E+00
71  7.0000000000000E-01 -7.4639576722521E-01  1.3458089385640E+00
72  7.1000000000000E-01 -7.4998821191575E-01  1.3932267049834E+00
73  7.2000000000000E-01 -7.4762784129023E-01  1.4395657760528E+00
74  7.3000000000000E-01 -7.3964615835299E-01  1.4848242763793E+00
75  7.4000000000000E-01 -7.2641793889367E-01  1.5289448465823E+00
76  7.5000000000000E-01 -7.0835736332749E-01  1.5717988840363E+00
77  7.6000000000000E-01 -6.8591353694817E-01  1.6131740046616E+00
78  7.7000000000000E-01 -6.5956540315688E-01  1.6527654136736E+00
79  7.8000000000000E-01 -6.2981607754575E-01  1.6901717087089E+00
80  7.9000000000000E-01 -5.9718665566255E-01  1.7248954504550E+00
81  8.0000000000000E-01 -5.6220957270588E-01  1.7563486323147E+00
82  8.1000000000000E-01 -5.2542161805075E-01  1.7838629710762E+00
83  8.2000000000000E-01 -4.8735673008879E-01  1.8067047349930E+00
84  8.3000000000000E-01 -4.4853871609568E-01  1.8240936342372E+00
85  8.4000000000000E-01 -4.0947405647883E-01  1.8352251312951E+00
86  8.5000000000000E-01 -3.7064496168608E-01  1.8392953948750E+00
87  8.6000000000000E-01 -3.3250285229667E-01  1.8355280286917E+00
88  8.7000000000000E-01 -2.9546242758875E-01  1.8232016632282E+00
89  8.8000000000000E-01 -2.5989647462552E-01  1.8016775098551E+00
90  8.9000000000000E-01 -2.2613154831826E-01  1.7704260463982E+00
91  9.0000000000000E-01 -1.9444462296382E-01  1.7290521333694E+00
92  9.1000000000000E-01 -1.6506077764242E-01  1.6773180506661E+00
93  9.2000000000000E-01 -1.3815193208665E-01  1.6151641936961E+00
94  9.3000000000000E-01 -1.1383659693341E-01  1.5427274718247E+00
95  9.4000000000000E-01 -9.2180543612019E-02  1.4603578052557E+00
96  9.5000000000000E-01 -7.3198235661153E-02  1.3686335119244E+00
97  9.6000000000000E-01 -5.6854796343937E-02  1.2683768052238E+00
98  9.7000000000000E-01 -4.3068218438447E-02  1.1606710773373E+00
99  9.8000000000000E-01 -3.1711452580490E-02  1.0468821111861E+00
100  9.9000000000000E-01 -2.2613941396745E-02  9.2868584407575E-01
101  1.0000000000000E+00 -1.5562110649687E-02  8.0810564523742E-01
102  1.0100000000000E+00 -1.0298293710122E-02  6.8756217883988E-01
103  1.0200000000000E+00 -6.5272945191536E-03  5.6981878299146E-01
104  1.0300000000000E+00 -3.9483343110242E-03  4.5762609498683E-01
105  1.0400000000000E+00 -2.2760188592453E-03  3.5353991570402E-01
106  1.0500000000000E+00 -1.2512307865556E-03  2.5986677533529E-01
107  1.0600000000000E+00 -6.7984831947375E-04  1.7844153546649E-01
108  1.0700000000000E+00 -3.9699409282851E-04  1.1082744672002E-01
109  1.0800000000000E+00 -2.4028294667507E-04  5.8516600587416E-02
110  1.0900000000000E+00 -1.2116651281324E-04  2.2533086719938E-02
111  1.1000000000000E+00 -2.5085139755367E-05  3.3921920243025E-03
112  1.1100000000000E+00  1.4641734599452E-06 -1.5863915456810E-04
113  1.1200000000000E+00  1.3370826776492E-08 -1.8109144919119E-06
114  1.13 -0. -0.
115  1.14  0.  0.
116  1.15  0.  0.
117  1.16  0.  0.
118  1.17  0.  0.
119  1.18  0.  0.
120  1.19  0.  0.
121  1.20  0.  0.
122  1.21  0.  0.
123  1.22  0.  0.
124  1.23  0.  0.
125  1.24  0.  0.
126  1.25  0.  0.
127  1.26  0.  0.
128  1.27  0.  0.
129  1.28  0.  0.
130  1.29  0.  0.
131  1.30  0.  0.
132  1.31  0.  0.
133  1.32  0.  0.
134  1.33  0.  0.
135  1.34  0.  0.
136  1.35  0.  0.
137  1.36  0.  0.
138  1.37  0.  0.
139  1.38  0.  0.
140  1.39  0.  0.
141  1.40  0.  0.
142  1.41  0.  0.
143  1.42  0.  0.
144  1.43  0.  0.
145  1.44  0.  0.
146  1.45  0.  0.
147  1.46  0.  0.
148  1.47  0.  0.
149  1.48  0.  0.
150  1.49  0.  0.
151  1.50  0.  0.
152  1.51  0.  0.
153  1.52  0.  0.
154  1.53  0.  0.
155  1.54  0.  0.
156  1.55  0.  0.
157  1.56  0.  0.
158  1.57  0.  0.
159  1.58  0.  0.
160  1.59  0.  0.
161  1.60  0.  0.
162  1.61  0.  0.
163  1.62  0.  0.
164  1.63  0.  0.
165  1.64  0.  0.
166  1.65  0.  0.
167  1.66  0.  0.
168  1.67  0.  0.
169  1.68  0.  0.
170  1.69  0.  0.
171  1.70  0.  0.
172  1.71  0.  0.
173  1.72  0.  0.
174  1.73  0.  0.
175  1.74  0.  0.
176  1.75  0.  0.
177  1.76  0.  0.
178  1.77  0.  0.
179  1.78  0.  0.
180  1.79  0.  0.
181  1.80  0.  0.
182  1.81  0.  0.
183  1.82  0.  0.
184  1.83  0.  0.
185  1.84  0.  0.
186  1.85  0.  0.
187  1.86  0.  0.
188  1.87  0.  0.
189  1.88  0.  0.
190  1.89  0.  0.
191  1.90  0.  0.
192  1.91  0.  0.
193  1.92  0.  0.
194  1.93  0.  0.
195  1.94  0.  0.
196  1.95  0.  0.
197  1.96  0.  0.