Md    ONCVPSP-4.0.1  r_core=   1.10635   1.10635   1.00536   1.10635
101.0000     41.0000      231012    zatom,zion,pspd
8 -116133   3     4   600     0    pspcod,pspxc,lmax,lloc,mmax,r2well
5.99000000  2.70000000  0.00000000    rchrg fchrg qchrg
3     4     3     2    nproj
3     1           extension_switch
4     4     4    nprojso
0                         2.9205441698131E+01  3.9192624161869E+00 -6.0260417683674E-01
1  0.0000000000000E+00 -5.6632668110623E-08  1.8065777646070E-07  1.2056345030653E-07
2  1.0000000000000E-02  1.6296905050164E-01 -5.4061995283486E-02  1.7346525317063E-02
3  2.0000000000000E-02  3.2476179665307E-01 -1.0671335144175E-01  3.5088295576451E-02
4  3.0000000000000E-02  4.8421704428367E-01 -1.5657902596402E-01  5.3600056119678E-02
5  4.0000000000000E-02  6.4020341334755E-01 -2.0235392013931E-01  7.3216401057662E-02
6  5.0000000000000E-02  7.9163324516478E-01 -2.4283477760887E-01  9.4213784276422E-02
7  6.0000000000000E-02  9.3747535335986E-01 -2.7694853345607E-01  1.1679494242651E-01
8  7.0000000000000E-02  1.0767663035846E+00 -3.0377615546479E-01  1.4107638445936E-01
9  8.0000000000000E-02  1.2086199637452E+00 -3.2257119983498E-01  1.6707948171023E-01
10  9.0000000000000E-02  1.3322351326652E+00 -3.3277251503421E-01  1.9472555087723E-01
11  1.0000000000000E-01  1.4469011281386E+00 -3.3401076084719E-01  2.2383516502284E-01
12  1.1000000000000E-01  1.5520012921047E+00 -3.2610865541138E-01  2.5413176104961E-01
13  1.2000000000000E-01  1.6470144480074E+00 -3.0907511093565E-01  2.8524944246306E-01
14  1.3000000000000E-01  1.7315144200383E+00 -2.8309365863308E-01  3.1674471023837E-01
15  1.4000000000000E-01  1.8051677928102E+00 -2.4850578523985E-01  3.4811169871604E-01
16  1.5000000000000E-01  1.8677301501695E+00 -2.0578999816249E-01  3.7880035373537E-01
17  1.6000000000000E-01  1.9190410808499E+00 -1.5553759574305E-01  4.0823687211607E-01
18  1.7000000000000E-01  1.9590182744528E+00 -9.8426236776518E-02  4.3584562971364E-01
19  1.8000000000000E-01  1.9876510523444E+00 -3.5192474403797E-02  4.6107176318362E-01
20  1.9000000000000E-01  2.0049936836562E+00  3.3395559053627E-02  4.8340354070765E-01
21  2.0000000000000E-01  2.0111588264611E+00  1.0656415869418E-01  5.0239366042521E-01
22  2.1000000000000E-01  2.0063114088912E+00  1.8355766547971E-01  5.1767865203515E-01
23  2.2000000000000E-01  1.9906632255965E+00  2.6365874071910E-01  5.2899562555476E-01
24  2.3000000000000E-01  1.9644684732803E+00  3.4620450504657E-01  5.3619570887269E-01
25  2.4000000000000E-01  1.9280203873873E+00  4.3059794809152E-01  5.3925363870563E-01
26  2.5000000000000E-01  1.8816490730943E+00  5.1631423784889E-01  5.3827311308336E-01
27  2.6000000000000E-01  1.8257205506331E+00  6.0290179713112E-01  5.3348767195394E-01
28  2.7000000000000E-01  1.7606369609271E+00  6.8997825824421E-01  5.2525703977286E-01
29  2.8000000000000E-01  1.6868378058629E+00  7.7722164573397E-01  5.1405903352769E-01
30  2.9000000000000E-01  1.6048020315138E+00  8.6435736041835E-01  5.0047730498400E-01
31  3.0000000000000E-01  1.5150507052791E+00  9.5114173632440E-01  4.8518534065014E-01
32  3.1000000000000E-01  1.4181499919081E+00  1.0373431069225E+00  4.6892728108611E-01
33  3.2000000000000E-01  1.3147141009225E+00  1.1227214409701E+00  4.5249623745819E-01
34  3.3000000000000E-01  1.2054078606892E+00  1.2070076857816E+00  4.3671087325227E-01
35  3.4000000000000E-01  1.0909485733232E+00  1.2898839832333E+00  4.2239107945270E-01
36  3.5000000000000E-01  9.7210682002954E-01  1.3709658997856E+00  4.1033360008467E-01
37  3.6000000000000E-01  8.4970591801964E-01  1.4497877369448E+00  4.0128846088851E-01
38  3.7000000000000E-01  7.2461977667172E-01  1.5257918657232E+00  3.9593701741315E-01
39  3.8000000000000E-01  5.9776896038929E-01  1.5983228626882E+00  3.9487237162870E-01
40  3.9000000000000E-01  4.7011483630138E-01  1.6666270228575E+00  3.9858281110816E-01
41  4.0000000000000E-01  3.4265176370613E-01  1.7298575943351E+00  4.0743880584898E-01
42  4.1000000000000E-01  2.1639736576968E-01  1.7870858307400E+00  4.2168395973746E-01
43  4.2000000000000E-01  9.2381008985515E-02  1.8373177005811E+00  4.4143016208606E-01
44  4.3000000000000E-01 -2.8369301284410E-02  1.8795158385672E+00  4.6665702564848E-01
45  4.4000000000000E-01 -1.4484132374790E-01  1.9126260831686E+00  4.9721553735572E-01
46  4.5000000000000E-01 -2.5605392906436E-01  1.9356077278384E+00  5.3283569302561E-01
47  4.6000000000000E-01 -3.6107298304044E-01  1.9474664294423E+00  5.7313774350810E-01
48  4.7000000000000E-01 -4.5902731393742E-01  1.9472885746330E+00  6.1764655267524E-01
49  4.8000000000000E-01 -5.4912428758282E-01  1.9342758094416E+00  6.6580846215723E-01
50  4.9000000000000E-01 -6.3066450662147E-01  1.9077783935831E+00  7.1700997764460E-01
51  5.0000000000000E-01 -7.0305516120138E-01  1.8673260511174E+00  7.7059753974851E-01
52  5.1000000000000E-01 -7.6582158748694E-01  1.8126550531519E+00  8.2589762048190E-01
53  5.2000000000000E-01 -8.1861663670977E-01  1.7437303839555E+00  8.8223639481091E-01
54  5.3000000000000E-01 -8.6122751937894E-01  1.6607620047779E+00  9.3895827460910E-01
55  5.4000000000000E-01 -8.9357986451793E-01  1.5642144334712E+00  9.9544265772258E-01
56  5.5000000000000E-01 -9.1573881955837E-01  1.4548090946159E+00  1.0511183346112E+00
57  5.6000000000000E-01 -9.2790710956507E-01  1.3335191548579E+00  1.1054751051207E+00
58  5.7000000000000E-01 -9.3042007124649E-01  1.2015568311648E+00  1.1580722835172E+00
59  5.8000000000000E-01 -9.2373777403351E-01  1.0603534348151E+00  1.2085439055847E+00
60  5.9000000000000E-01 -9.0843443369654E-01  9.1153268015627E-01  1.2566005915946E+00
61  6.0000000000000E-01 -8.8518540998129E-01  7.5687803392987E-01  1.3020281574856E+00
62  6.1000000000000E-01 -8.5475215534068E-01  5.9829509850390E-01  1.3446831979304E+00
63  6.2000000000000E-01 -8.1796554421810E-01  4.3777020215749E-01  1.3844859838325E+00
64  6.3000000000000E-01 -7.7570805923076E-01  2.7732650469165E-01  1.4214111184698E+00
65  6.4000000000000E-01 -7.2889534037698E-01  1.1897901200356E-01  1.4554764770662E+00
66  6.5000000000000E-01 -6.7845761510672E-01 -3.5310074164704E-02  1.4867310110562E+00
67  6.6000000000000E-01 -6.2532152052790E-01 -1.8367426618958E-01  1.5152420287623E+00
68  6.7000000000000E-01 -5.7039280467429E-01 -3.2438262860189E-01  1.5410825678344E+00
69  6.8000000000000E-01 -5.1454035282600E-01 -4.5587533501890E-01  1.5643194518980E+00
70  6.9000000000000E-01 -4.5858192916846E-01 -5.7679390096396E-01  1.5850025758534E+00
71  7.0000000000000E-01 -4.0327195597532E-01 -6.8600525243904E-01  1.6031558935970E+00
72  7.1000000000000E-01 -3.4929157479599E-01 -7.8261902140625E-01  1.6187704919366E+00
73  7.2000000000000E-01 -2.9724114995423E-01 -8.6599770967028E-01  1.6318000292806E+00
74  7.3000000000000E-01 -2.4763528729870E-01 -9.3575962218495E-01  1.6421587019407E+00
75  7.4000000000000E-01 -2.0090035395040E-01 -9.9177472937869E-01  1.6497217797167E+00
76  7.5000000000000E-01 -1.5737440099582E-01 -1.0341538658989E+00  1.6543286310377E+00
77  7.6000000000000E-01 -1.1730931371633E-01 -1.0632319009401E+00  1.6557880415606E+00
78  7.7000000000000E-01 -8.0874945718064E-02 -1.0795457147648E+00  1.6538855237625E+00
79  7.8000000000000E-01 -4.8164936506074E-02 -1.0838079801116E+00  1.6483922233087E+00
80  7.9000000000000E-01 -1.9203868410338E-02 -1.0768778703358E+00  1.6390749548772E+00
81  8.0000000000000E-01  6.0446104284695E-03 -1.0597298943539E+00  1.6257068490605E+00
82  8.1000000000000E-01  2.7669084373707E-02 -1.0334220894508E+00  1.6080780655827E+00
83  8.2000000000000E-01  4.5801476040316E-02 -9.9906478605302E-01  1.5860060282026E+00
84  8.3000000000000E-01  6.0608329412717E-02 -9.5779109449500E-01  1.5593446643953E+00
85  8.4000000000000E-01  7.2282609865725E-02 -9.1073015473488E-01  1.5279921885232E+00
86  8.5000000000000E-01  8.1036317109049E-02 -8.5898403915327E-01  1.4918970503611E+00
87  8.6000000000000E-01  8.7094151791977E-02 -8.0360900996281E-01  1.4510617806186E+00
88  8.7000000000000E-01  9.0688410913620E-02 -7.4560161080745E-01  1.4055446001376E+00
89  8.8000000000000E-01  9.2055212752382E-02 -6.8588982133594E-01  1.3554588181178E+00
90  8.9000000000000E-01  9.1432070105224E-02 -6.2532922810568E-01  1.3009702252585E+00
91  9.0000000000000E-01  8.9056742328945E-02 -5.6470386868521E-01  1.2422928884169E+00
92  9.1000000000000E-01  8.5167202780888E-02 -5.0473109089428E-01  1.1796839727361E+00
93  9.2000000000000E-01  8.0002459111469E-02 -4.4606943712342E-01  1.1134384540365E+00
94  9.3000000000000E-01  7.3803859310056E-02 -3.8932821452463E-01  1.0438848378888E+00
95  9.4000000000000E-01  6.6816405735369E-02 -3.3507704383898E-01  9.7138327207555E-01
96  9.5000000000000E-01  5.9289481259126E-02 -2.8385328923726E-01  8.9632772663370E-01
97  9.6000000000000E-01  5.1476264260355E-02 -2.3616485371009E-01  8.1915422147291E-01
98  9.7000000000000E-01  4.3630969954137E-02 -1.9248537200125E-01  7.4035740779069E-01
99  9.8000000000000E-01  3.6002901497162E-02 -1.5323833758086E-01  6.6051815849153E-01
100  9.9000000000000E-01  2.8826120894555E-02 -1.1876614735726E-01  5.8034520479091E-01
101  1.0000000000000E+00  2.2303369961443E-02 -8.9279496832611E-02  5.0073414991812E-01
102  1.0100000000000E+00  1.6582692417543E-02 -6.4782041583132E-02  4.2284732923595E-01
103  1.0200000000000E+00  1.1740405150532E-02 -4.5027566669203E-02  3.4811127283419E-01
104  1.0300000000000E+00  7.8036704707890E-03 -2.9638046420242E-02  2.7794768046897E-01
105  1.0400000000000E+00  4.7632105714568E-03 -1.8169547762241E-02  2.1364619449646E-01
106  1.0500000000000E+00  2.5739829783468E-03 -1.0124164659418E-02  1.5634605872207E-01
107  1.0600000000000E+00  1.1064732992960E-03 -4.8202547745710E-03  1.0697305768986E-01
108  1.0700000000000E+00  2.2645012120811E-04 -1.6210793480389E-03  6.6294229789691E-02
109  1.0800000000000E+00 -1.5038270901199E-04 -1.0263086712959E-04  3.4975383389196E-02
110  1.0900000000000E+00 -1.7272780883981E-04  2.6362036581705E-04  1.3476313207020E-02
111  1.1000000000000E+00 -4.5006154052131E-05  8.7516274302072E-05  2.0329023963373E-03
112  1.1100000000000E+00  2.8177944320549E-06 -5.8729746063863E-06 -9.5268803128763E-05
113  1.1200000000000E+00  2.3876651313406E-08 -4.6529711303974E-08 -1.0852467483095E-06
114  1.13  0.  0.  0.
115  1.14  0.  0.  0.
116  1.15  0.  0.  0.
117  1.16  0.  0.  0.
118  1.17  0.  0.  0.
119  1.18  0.  0.  0.
120  1.19  0.  0.  0.
121  1.20  0.  0.  0.
122  1.21  0.  0.  0.
123  1.22  0.  0.  0.
124  1.23  0.  0.  0.
125  1.24  0.  0.  0.
126  1.25  0.  0.  0.
127  1.26  0.  0.  0.
128  1.27  0.  0.  0.
129  1.28  0.  0.  0.
130  1.29  0.  0.  0.
131  1.30  0.  0.  0.
132  1.31  0.  0.  0.
133  1.32  0.  0.  0.
134  1.33  0.  0.  0.
135  1.34  0.  0.  0.
136  1.35  0.  0.  0.
137  1.36  0.  0.  0.
138  1.37  0.  0.  0.
139  1.38  0.  0.  0.
140  1.39  0.  0.  0.
141  1.40  0.  0.  0.
142  1.41  0.  0.  0.
143  1.42  0.  0.  0.
144  1.43  0.  0.  0.
145  1.44  0.  0.  0.
146  1.45  0.  0.  0.
147  1.46  0.  0.  0.
148  1.47  0.  0.  0.
149  1.48  0.  0.  0.
150  1.49  0.  0.  0.
151  1.50  0.  0.  0.
152  1.51  0.  0.  0.
153  1.52  0.  0.  0.
154  1.53  0.  0.  0.
155  1.54  0.  0.  0.
156  1.55  0.  0.  0.
157  1.56  0.  0.  0.
158  1.57  0.  0.  0.
159  1.58  0.  0.  0.
160  1.59  0.  0.  0.
161  1.60  0.  0.  0.
162  1.61  0.  0.  0.
163  1.62  0.  0.  0.
164  1.63  0.  0.  0.
165  1.64  0.  0.  0.
166  1.65  0.  0.  0.
167  1.66  0.  0.  0.
168  1.67  0.  0.  0.
169  1.68  0.  0.  0.
170  1.69  0.  0.  0.
171  1.70  0.  0.  0.
172  1.71  0.  0.  0.
173  1.72  0.  0.  0.
174  1.73  0.  0.  0.
175  1.74  0.  0.  0.
176  1.75  0.  0.  0.
177  1.76  0.  0.  0.
178  1.77  0.  0.  0.
179  1.78  0.  0.  0.
180  1.79  0.  0.  0.
181  1.80  0.  0.  0.
182  1.81  0.  0.  0.
183  1.82  0.  0.  0.
184  1.83  0.  0.  0.
185  1.84  0.  0.  0.
186  1.85  0.  0.  0.
187  1.86  0.  0.  0.
188  1.87  0.  0.  0.
189  1.88  0.  0.  0.
190  1.89  0.  0.  0.
191  1.90  0.  0.  0.
192  1.91  0.  0.  0.
193  1.92  0.  0.  0.
194  1.93  0.  0.  0.
195  1.94  0.  0.  0.
196  1.95  0.  0.  0.
197  1.96  0.  0.  0.
198  1.97  0.  0.  0.
199  1.98  0.  0.  0.
200  1.99  0.  0.  0.
201  2.00  0.  0.  0.
202  2.01  0.  0.  0.
203  2.02  0.  0.  0.
204  2.03  0.  0.  0.
205  2.04  0.  0.  0.
206  2.05  0.  0.  0.
207  2.06  0.  0.  0.
208  2.07  0.  0.  0.
209  2.08  0.  0.  0.
210  2.09  0.  0.  0.
211  2.10  0.  0.  0.
212  2.11  0.  0.  0.
213  2.12  0.  0.  0.
214  2.13  0.  0.  0.
215  2.14  0.  0.  0.
216  2.15  0.  0.  0.
217  2.16  0.  0.  0.
218  2.17  0.  0.  0.
219  2.18  0.  0.  0.
220  2.19  0.  0.  0.
221  2.20  0.  0.  0.
222  2.21  0.  0.  0.
223  2.22  0.  0.  0.
224  2.23  0.  0.  0.
225  2.24  0.  0.  0.
226  2.25  0.  0.  0.
227  2.26  0.  0.  0.
228  2.27  0.  0.  0.
229  2.28  0.  0.  0.
230  2.29  0.  0.  0.
231  2.30  0.  0.  0.
232  2.31  0.  0.  0.
233  2.32  0.  0.  0.
234  2.33  0.  0.  0.
235  2.34  0.  0.  0.
236  2.35  0.  0.  0.
237  2.36  0.  0.  0.
238  2.37  0.  0.  0.
239  2.38  0.  0.  0.
240  2.39  0.  0.  0.
241  2.40  0.  0.  0.
242  2.41  0.  0.  0.
243  2.42  0.  0.  0.
244  2.43  0.  0.  0.
245  2.44  0.  0.  0.
246  2.45  0.  0.  0.
247  2.46  0.  0.  0.
248  2.47  0.  0.  0.
249  2.48  0.  0.  0.
250  2.49  0.  0.  0.
251  2.50  0.  0.  0.
252  2.51  0.  0.  0.
253  2.52  0.  0.  0.
254  2.53  0.  0.  0.
255  2.54  0.  0.  0.
256  2.55  0.  0.  0.
257  2.56  0.  0.  0.
258  2.57  0.  0.  0.
259  2.58  0.  0.  0.
260  2.59  0.  0.  0.
261  2.60  0.  0.  0.
262  2.61  0.  0.  0.
263  2.62  0.  0.  0.
264  2.63  0.  0.  0.
265  2.64  0.  0.  0.
266  2.65  0.  0.  0.
267  2.66  0.  0.  0.
268  2.67  0.  0.  0.
269  2.68  0.  0.  0.
270  2.69  0.  0.  0.
271  2.70  0.  0.  0.
272  2.71  0.  0.  0.
273  2.72  0.  0.  0.
274  2.73  0.  0.  0.
275  2.74  0.  0.  0.
276  2.75  0.  0.  0.
277  2.76  0.  0.  0.
278  2.77  0.  0.  0.
279  2.78  0.  0.  0.
280  2.79  0.  0.  0.
281  2.80  0.  0.  0.
282  2.81  0.  0.  0.
283  2.82  0.  0.  0.
284  2.83  0.  0.  0.
285  2.84  0.  0.  0.
286  2.85  0.  0.  0.
287  2.86  0.  0.  0.
288  2.87  0.  0.  0.
289  2.88  0.  0.  0.
290  2.89  0.  0.  0.
291  2.90  0.  0.  0.
292  2.91  0.  0.  0.
293  2.92  0.  0.  0.
294  2.93  0.  0.  0.
295  2.94  0.  0.  0.
296  2.95  0.  0.  0.
297  2.96  0.  0.  0.
298  2.97  0.  0.  0.
299  2.98  0.  0.  0.
300  2.99  0.  0.  0.
301  3.00  0.  0.  0.
302  3.01  0.  0.  0.
303  3.02  0.  0.  0.
304  3.03  0.  0.  0.
305  3.04  0.  0.  0.
306  3.05  0.  0.  0.
307  3.06  0.  0.  0.
308  3.07  0.  0.  0.
309  3.08  0.  0.  0.
310  3.09  0.  0.  0.
311  3.10  0.  0.  0.
312  3.11  0.  0.  0.
313  3.12  0.  0.  0.
314  3.13  0.  0.  0.
315  3.14  0.  0.  0.
316  3.15  0.  0.  0.
317  3.16  0.  0.  0.
318  3.17  0.  0.  0.
319  3.18  0.  0.  0.
320  3.19  0.  0.  0.
321  3.20  0.  0.  0.
322  3.21  0.  0.  0.
323  3.22  0.  0.  0.
324  3.23  0.  0.  0.
325  3.24  0.  0.  0.
326  3.25  0.  0.  0.
327  3.26  0.  0.  0.
328  3.27  0.  0.  0.
329  3.28  0.  0.  0.
330  3.29  0.  0.  0.
331  3.30  0.  0.  0.
332  3.31  0.  0.  0.
333  3.32  0.  0.  0.
334  3.33  0.  0.  0.
335  3.34  0.  0.  0.
336  3.35  0.  0.  0.
337  3.36  0.  0.  0.
338  3.37  0.  0.  0.
339  3.38  0.  0.  0.
340  3.39  0.  0.  0.
341  3.40  0.  0.  0.
342  3.41  0.  0.  0.
343  3.42  0.  0.  0.
344  3.43  0.  0.  0.
345  3.44  0.  0.  0.
346  3.45  0.  0.  0.
347  3.46  0.  0.  0.
348  3.47  0.  0.  0.
349  3.48  0.  0.  0.
350  3.49  0.  0.  0.
351  3.50  0.  0.  0.
352  3.51  0.  0.  0.
353  3.52  0.  0.  0.
354  3.53  0.  0.  0.
355  3.54  0.  0.  0.
356  3.55  0.  0.  0.
357  3.56  0.  0.  0.
358  3.57  0.  0.  0.
359  3.58  0.  0.  0.
360  3.59  0.  0.  0.
361  3.60  0.  0.  0.
362  3.61  0.  0.  0.
363  3.62  0.  0.  0.
364  3.63  0.  0.  0.
365  3.64  0.  0.  0.
366  3.65  0.  0.  0.
367  3.66  0.  0.  0.
368  3.67  0.  0.  0.
369  3.68  0.  0.  0.
370  3.69  0.  0.  0.
371  3.70  0.  0.  0.
372  3.71  0.  0.  0.
373  3.72  0.  0.  0.
374  3.73  0.  0.  0.
375  3.74  0.  0.  0.
376  3.75  0.  0.  0.
377  3.76  0.  0.  0.
378  3.77  0.  0.  0.
379  3.78  0.  0.  0.
380  3.79  0.  0.  0.
381  3.80  0.  0.  0.
382  3.81  0.  0.  0.
383  3.82  0.  0.  0.
384  3.83  0.  0.  0.
385  3.84  0.  0.  0.
386  3.85  0.  0.  0.
387  3.86  0.  0.  0.
388  3.87  0.  0.  0.
389  3.88  0.  0.  0.
390  3.89  0.  0.  0.
391  3.90  0.  0.  0.
392  3.91  0.  0.  0.
393  3.92  0.  0.  0.
394  3.93  0.  0.  0.
395  3.94  0.  0.  0.
396  3.95  0.  0.  0.
397  3.96  0.  0.  0.
398  3.97  0.  0.  0.
399  3.98  0.  0.  0.
400  3.99  0.  0.  0.
401  4.00  0.  0.  0.
402  4.01  0.  0.  0.
403  4.02  0.  0.  0.
404  4.03  0.  0.  0.
405  4.04  0.  0.  0.
406  4.05  0.  0.  0.
407  4.06  0.  0.  0.
408  4.07  0.  0.  0.
409  4.08  0.  0.  0.
410  4.09  0.  0.  0.
411  4.10  0.  0.  0.
412  4.11  0.  0.  0.
413  4.12  0.  0.  0.
414  4.13  0.  0.  0.
415  4.14  0.  0.  0.
416  4.15  0.  0.  0.
417  4.16  0.  0.  0.
418  4.17  0.  0.  0.
419  4.18  0.  0.  0.
420  4.19  0.  0.  0.
421  4.20  0.  0.  0.
422  4.21  0.  0.  0.
423  4.22  0.  0.  0.
424  4.23  0.  0.  0.
425  4.24  0.  0.  0.
426  4.25  0.  0.  0.
427  4.26  0.  0.  0.
428  4.27  0.  0.  0.
429  4.28  0.  0.  0.
430  4.29  0.  0.  0.
431  4.30  0.  0.  0.
432  4.31  0.  0.  0.
433  4.32  0.  0.  0.
434  4.33  0.  0.  0.
435  4.34  0.  0.  0.
436  4.35  0.  0.  0.
437  4.36  0.  0.  0.
438  4.37  0.  0.  0.
439  4.38  0.  0.  0.
440  4.39  0.  0.  0.
441  4.40  0.  0.  0.
442  4.41  0.  0.  0.
443  4.42  0.  0.  0.
444  4.43  0.  0.  0.
445  4.44  0.  0.  0.
446  4.45  0.  0.  0.
447  4.46  0.  0.  0.
448  4.47  0.  0.  0.
449  4.48  0.  0.  0.
450  4.49  0.  0.  0.
451  4.50  0.  0.  0.
452  4.51  0.  0.  0.
453  4.52  0.  0.  0.
454  4.53  0.  0.  0.
455  4.54  0.  0.  0.
456  4.55  0.  0.  0.
457  4.56  0.  0.  0.
458  4.57  0.  0.  0.
459  4.58  0.  0.  0.
460  4.59  0.  0.  0.
461  4.60  0.  0.  0.
462  4.61  0.  0.  0.
463  4.62  0.  0.  0.
464  4.63  0.  0.  0.
465  4.64  0.  0.  0.
466  4.65  0.  0.  0.
467  4.66  0.  0.  0.
468  4.67  0.  0.  0.
469  4.68  0.  0.  0.
470  4.69  0.  0.  0.
471  4.70  0.  0.  0.
472  4.71  0.  0.  0.
473  4.72  0.  0.  0.
474  4.73  0.  0.  0.
475  4.74  0.  0.  0.
476  4.75  0.  0.  0.
477  4.76  0.  0.  0.
478  4.77  0.  0.  0.
479  4.78  0.  0.  0.
480  4.79  0.  0.  0.
481  4.80  0.  0.  0.
482  4.81  0.  0.  0.
483  4.82  0.  0.  0.
484  4.83  0.  0.  0.
485  4.84  0.  0.  0.
486  4.85  0.  0.  0.
487  4.86  0.  0.  0.
488  4.87  0.  0.  0.
489  4.88  0.  0.  0.
490  4.89  0.  0.  0.
491  4.90  0.  0.  0.
492  4.91  0.  0.  0.
493  4.92  0.  0.  0.
494  4.93  0.  0.  0.
495  4.94  0.  0.  0.
496  4.95  0.  0.  0.
497  4.96  0.  0.  0.
498  4.97  0.  0.  0.
499  4.98  0.  0.  0.
500  4.99  0.  0.  0.
501  5.00  0.  0.  0.
502  5.01  0.  0.  0.
503  5.02  0.  0.  0.
504  5.03  0.  0.  0.
505  5.04  0.  0.  0.
506  5.05  0.  0.  0.
507  5.06  0.  0.  0.
508  5.07  0.  0.  0.
509  5.08  0.  0.  0.
510  5.09  0.  0.  0.
511  5.10  0.  0.  0.
512  5.11  0.  0.  0.
513  5.12  0.  0.  0.
514  5.13  0.  0.  0.
515  5.14  0.  0.  0.
516  5.15  0.  0.  0.
517  5.16  0.  0.  0.
518  5.17  0.  0.  0.
519  5.18  0.  0.  0.
520  5.19  0.  0.  0.
521  5.20  0.  0.  0.
522  5.21  0.  0.  0.
523  5.22  0.  0.  0.
524  5.23  0.  0.  0.
525  5.24  0.  0.  0.
526  5.25  0.  0.  0.
527  5.26  0.  0.  0.
528  5.27  0.  0.  0.
529  5.28  0.  0.  0.
530  5.29  0.  0.  0.
531  5.30  0.  0.  0.
532  5.31  0.  0.  0.
533  5.32  0.  0.  0.
534  5.33  0.  0.  0.
535  5.34  0.  0.  0.
536  5.35  0.  0.  0.
537  5.36  0.  0.  0.
538  5.37  0.  0.  0.
539  5.38  0.  0.  0.
540  5.39  0.  0.  0.
541  5.40  0.  0.  0.
542  5.41  0.  0.  0.
543  5.42  0.  0.  0.
544  5.43  0.  0.  0.
545  5.44  0.  0.  0.
546  5.45  0.  0.  0.
547  5.46  0.  0.  0.
548  5.47  0.  0.  0.
549  5.48  0.  0.  0.
550  5.49  0.  0.  0.
551  5.50  0.  0.  0.
552  5.51  0.  0.  0.
553  5.52  0.  0.  0.
554  5.53  0.  0.  0.
555  5.54  0.  0.  0.
556  5.55  0.  0.  0.
557  5.56  0.  0.  0.
558  5.57  0.  0.  0.
559  5.58  0.  0.  0.
560  5.59  0.  0.  0.
561  5.60  0.  0.  0.
562  5.61  0.  0.  0.
563  5.62  0.  0.  0.
564  5.63  0.  0.  0.
565  5.64  0.  0.  0.
566  5.65  0.  0.  0.
567  5.66  0.  0.  0.
568  5.67  0.  0.  0.
569  5.68  0.  0.  0.
570  5.69  0.  0.  0.
571  5.70  0.  0.  0.
572  5.71  0.  0.  0.
573  5.72  0.  0.  0.
574  5.73  0.  0.  0.
575  5.74  0.  0.  0.
576  5.75  0.  0.  0.
577  5.76  0.  0.  0.
578  5.77  0.  0.  0.
579  5.78  0.  0.  0.
580  5.79  0.  0.  0.
581  5.80  0.  0.  0.
582  5.81  0.  0.  0.
583  5.82  0.  0.  0.
584  5.83  0.  0.  0.
585  5.84  0.  0.  0.
586  5.85  0.  0.  0.
587  5.86  0.  0.  0.
588  5.87  0.  0.  0.
589  5.88  0.  0.  0.
590  5.89  0.  0.  0.
591  5.90  0.  0.  0.
592  5.91  0.  0.  0.
593  5.92  0.  0.  0.
594  5.93  0.  0.  0.
595  5.94  0.  0.  0.
596  5.95  0.  0.  0.
597  5.96  0.  0.  0.
598  5.97  0.  0.  0.
599  5.98  0.  0.  0.
600  5.99  0.  0.  0.
1                         9.1618806436176E+00 -4.7678694504055E-01 -1.9560595483588E-01  2.0977029507425E-02
1  0.0000000000000E+00 -3.2899954982568E-10 -7.2142869941838E-08 -1.8505455077111E-07  3.1056211269309E-07
2  1.0000000000000E-02  4.7026642151699E-03  6.4945277426203E-04 -2.9129270019826E-04  1.0356882417588E-02
3  2.0000000000000E-02  1.8767670123736E-02  2.6134043580464E-03 -1.1047011260999E-03  4.1161189604907E-02
4  3.0000000000000E-02  4.2066360310583E-02  5.9375134958864E-03 -2.2619824787421E-03  9.1620902582744E-02
5  4.0000000000000E-02  7.4385316838947E-02  1.0694194454567E-02 -3.4764871269485E-03  1.6043911914339E-01
6  5.0000000000000E-02  1.1542788386325E-01  1.6977275354792E-02 -4.3683330500215E-03  2.4584802699618E-01
7  6.0000000000000E-02  1.6481631049158E-01  2.4894879426382E-02 -4.4847524678059E-03  3.4565504872884E-01
8  7.0000000000000E-02  2.2209452337410E-01  3.4560870448116E-02 -3.3247558000023E-03  4.5729979752331E-01
9  8.0000000000000E-02  2.8673153882289E-01  4.6085275776223E-02 -3.6707304205408E-04  5.7792017200263E-01
10  9.0000000000000E-02  3.5812552296750E-01  5.9564154897579E-02  4.8998111848516E-03  7.0442566294125E-01
11  1.0000000000000E-01  4.3560850532106E-01  7.5069415949472E-02  1.2946809467463E-02  8.3357575197831E-01
12  1.1000000000000E-01  5.1845174606203E-01  9.2639095520274E-02  2.4173896712685E-02  9.6206115884655E-01
13  1.2000000000000E-01  6.0587175031121E-01  1.1226860755314E-01  3.8881607800455E-02  1.0865856424862E+00
14  1.3000000000000E-01  6.9703691378286E-01  1.3390343549762E-01  5.7245627019302E-02  1.2039460837152E+00
15  1.4000000000000E-01  7.9107477359266E-01  1.5743368908007E-01  7.9295617760806E-02  1.3111086713009E+00
16  1.5000000000000E-01  8.8707982598363E-01  1.8269087515475E-01  1.0489928357625E-01  1.4052791752487E+00
17  1.6000000000000E-01  9.8412185963906E-01  2.0944714381507E-01  1.3375245370006E-01  1.4839655144888E+00
18  1.7000000000000E-01  1.0812547395145E+00  2.3741716974841E-01  1.6537575511418E-01  1.5450311024072E+00
19  1.8000000000000E-01  1.1775255622208E+00  2.6626271873339E-01  1.9911817809975E-01  1.5867377725610E+00
20  1.9000000000000E-01  1.2719840904454E+00  2.9559983463930E-01  2.3416757291135E-01  1.6077774367873E+00
21  2.0000000000000E-01  1.3636923612476E+00  3.2500846796587E-01  2.6956784225101E-01  1.6072919961342E+00
22  2.1000000000000E-01  1.4517343518376E+00  3.5404425758004E-01  3.0424232834262E-01  1.5848813985008E+00
23  2.2000000000000E-01  1.5352255771594E+00  3.8225207745255E-01  3.3702264513808E-01  1.5406001024554E+00
24  2.3000000000000E-01  1.6133224867045E+00  4.0918087413478E-01  3.6668198540831E-01  1.4749425517572E+00
25  2.4000000000000E-01  1.6852315238857E+00  4.3439925221322E-01  3.9197174806291E-01  1.3888185779398E+00
26  2.5000000000000E-01  1.7502177103101E+00  4.5751121714833E-01  4.1166019049134E-01  1.2835199185966E+00
27  2.6000000000000E-01  1.8076126196308E+00  4.7817146006844E-01  4.2457171984128E-01  1.1606792581526E+00
28  2.7000000000000E-01  1.8568216114206E+00  4.9609956868054E-01  4.2962539983126E-01  1.0222233594007E+00
29  2.8000000000000E-01  1.8973302047057E+00  5.1109257294316E-01  4.2587126772994E-01  8.7032195369197E-01
30  2.9000000000000E-01  1.9287094832817E+00  5.2303528299267E-01  4.1252312913115E-01  7.0733409360003E-01
31  3.0000000000000E-01  1.9506204404686E+00  5.3190794850276E-01  3.8898662353393E-01  5.3575364482489E-01
32  3.1000000000000E-01  1.9628171891811E+00  5.3779086071956E-01  3.5488152681871E-01  3.5815550718157E-01
33  3.2000000000000E-01  1.9651489836456E+00  5.4086562752549E-01  3.1005747087114E-01  1.7714401315130E-01
34  3.3000000000000E-01  1.9575610212293E+00  5.4141297397345E-01  2.5460250753780E-01 -4.6952358732759E-03
35  3.4000000000000E-01  1.9400940160556E+00  5.3980705113981E-01  1.8884421410658E-01 -1.8483906160793E-01
36  3.5000000000000E-01  1.9128825596925E+00  5.3650636979961E-01  1.1334331991572E-01 -3.6086514840855E-01
37  3.6000000000000E-01  1.8761523075467E+00  5.3204160704138E-01  2.8880117230615E-02 -5.3048471852397E-01
38  3.7000000000000E-01  1.8302160519722E+00  5.2700065822352E-01 -6.3565807196605E-02 -6.9156920401557E-01
39  3.8000000000000E-01  1.7754687638721E+00  5.2201141854103E-01 -1.6284173152663E-01 -8.4217094090774E-01
40  3.9000000000000E-01  1.7123817031138E+00  5.1772287325484E-01 -2.6765284049865E-01 -9.8053815634106E-01
41  4.0000000000000E-01  1.6414957138620E+00  5.1478514927960E-01 -3.7659696101641E-01 -1.1051247349967E+00
42  4.1000000000000E-01  1.5634138335233E+00  5.1382923005748E-01 -4.8820167181092E-01 -1.2145954280534E+00
43  4.2000000000000E-01  1.4787933530533E+00  5.1544705812917E-01 -6.0096238955146E-01 -1.3078272994309E+00
44  4.3000000000000E-01  1.3883374717054E+00  5.2017274425160E-01 -7.1338001308689E-01 -1.3839082852560E+00
45  4.4000000000000E-01  1.2927866908097E+00  5.2846556811945E-01 -8.2399674496199E-01 -1.4421337708547E+00
46  4.5000000000000E-01  1.1929100889339E+00  5.4069539468033E-01 -9.3142880360298E-01 -1.4820020651295E+00
47  4.6000000000000E-01  1.0894966149734E+00  5.5713104376233E-01 -1.0343948868807E+00 -1.5032095773507E+00
48  4.7000000000000E-01  9.8334652666697E-01  5.7793204238012E-01 -1.1317394421431E+00 -1.5056463810023E+00
49  4.8000000000000E-01  8.7526309015716E-01  6.0314406271962E-01 -1.2224500312483E+00 -1.4893926903560E+00
50  4.9000000000000E-01  7.6604464204087E-01  6.3269820927499E-01 -1.3056683418903E+00 -1.4547165867296E+00
51  5.0000000000000E-01  6.5647709946525E-01  6.6641417138572E-01 -1.3806946775208E+00 -1.4020731232398E+00
52  5.1000000000000E-01  5.4732698687616E-01  7.0400710834497E-01 -1.4469860454858E+00 -1.3321047206090E+00
53  5.2000000000000E-01  4.3933503067554E-01  7.4509798932724E-01 -1.5041482442687E+00 -1.2456425540621E+00
54  5.3000000000000E-01  3.3321035595760E-01  7.8922697552664E-01 -1.5519226137675E+00 -1.1437084343604E+00
55  5.4000000000000E-01  2.2962530330070E-01  8.3586931268658E-01 -1.5901683457612E+00 -1.0275165157668E+00
56  5.5000000000000E-01  1.2921086886296E-01  8.8445310364121E-01 -1.6188414447515E+00 -8.9847403034655E-01
57  5.6000000000000E-01  3.2552758256415E-02  9.3437825679922E-01 -1.6379715734187E+00 -7.5818015995281E-01
58  5.7000000000000E-01 -5.9811965756410E-02  9.8503586092452E-01 -1.6476381052345E+00 -6.0842212100951E-01
59  5.8000000000000E-01 -1.4739766951861E-01  1.0358272212236E+00 -1.6479467349194E+00 -4.5116755685761E-01
60  5.9000000000000E-01 -2.2977240152960E-01  1.0861818075295E+00 -1.6390079635642E+00 -2.8855240941817E-01
61  6.0000000000000E-01 -3.0655964744236E-01  1.1355734118833E+00 -1.6209186801842E+00 -1.2286357495465E-01
62  6.1000000000000E-01 -3.7743962184114E-01  1.1835338883778E+00 -1.5937479087887E+00  4.3484166326301E-02
63  6.2000000000000E-01 -4.4215012894357E-01  1.2296639498371E+00 -1.5575275858303E+00  2.0797722694448E-01
64  6.3000000000000E-01 -5.0048701968187E-01  1.2736406197230E+00 -1.5122489856486E+00  3.6803830904161E-01
65  6.4000000000000E-01 -5.5230426639771E-01  1.3152210785850E+00 -1.4578651317407E+00  5.2106724455878E-01
66  6.5000000000000E-01 -5.9751366917881E-01  1.3542427966148E+00 -1.3942992315163E+00  6.6448699899173E-01
67  6.6000000000000E-01 -6.3608420026633E-01  1.3906200011319E+00 -1.3214588648512E+00  7.9579395836957E-01
68  6.7000000000000E-01 -6.6804098558315E-01  1.4243366835169E+00 -1.2392553560134E+00  9.1261133501262E-01
69  6.8000000000000E-01 -6.9346391587986E-01  1.4554364976328E+00 -1.1476274781528E+00  1.0127442743918E+00
70  6.9000000000000E-01 -7.1248587483039E-01  1.4840100348488E+00 -1.0465683925679E+00  1.0942350365149E+00
71  7.0000000000000E-01 -7.2529056813026E-01  1.5101800736414E+00 -9.3615452325914E-01  1.1554164727381E+00
72  7.1000000000000E-01 -7.3210993665762E-01  1.5340854894830E+00 -8.1657492088736E-01  1.1949619327466E+00
73  7.2000000000000E-01 -7.3322113833633E-01  1.5558645694338E+00 -6.8815958697544E-01  1.2119297240802E+00
74  7.3000000000000E-01 -7.2894308764119E-01  1.5756385028565E+00 -5.5140521415434E-01  1.2058003124841E+00
75  7.4000000000000E-01 -7.1963254871350E-01  1.5934958136617E+00 -4.0699685365152E-01  1.1765045966546E+00
76  7.5000000000000E-01 -7.0567978766379E-01  1.6094784605646E+00 -2.5582414612972E-01  1.1244418133479E+00
77  7.6000000000000E-01 -6.8750380153266E-01  1.6235702615683E+00 -9.8990942338851E-02  1.0504859224767E+00
78  7.7000000000000E-01 -6.6554715512234E-01  1.6356882002543E+00  6.2182611293105E-02  9.5597967751083E-01
79  7.8000000000000E-01 -6.4027047193644E-01  1.6456770487651E+00  2.2616615002534E-01  8.4271599180503E-01
80  7.9000000000000E-01 -6.1214664110319E-01  1.6533076010324E+00  3.9123362616173E-01  7.1290665128874E-01
81  8.0000000000000E-01 -5.8165481765457E-01  1.6582786562876E+00  5.5548624330955E-01  5.6913888072568E-01
82  8.1000000000000E-01 -5.4927430808585E-01  1.6602227342905E+00  7.1688337108502E-01  4.1432072539089E-01