Cm    ONCVPSP-4.0.1  r_core=   1.15013   1.20650   1.10296   1.15013
96.0000     36.0000      231012    zatom,zion,pspd
8   -1012   3     4   600     0    pspcod,pspxc,lmax,lloc,mmax,r2well
5.99000000  5.00000000  0.00000000    rchrg fchrg qchrg
3     2     2     2     0    nproj
1     1           extension_switch
0                         3.1647859862216E+01  3.4845574738447E+00 -4.0908818413609E-01
1  0.0000000000000E+00 -3.6910823730807E-08  1.2723233355771E-07  1.0978413161888E-07
2  1.0000000000000E-02  1.5296000257768E-01 -6.2621554299409E-02  1.4620688225375E-02
3  2.0000000000000E-02  3.0493690070563E-01 -1.2396882357724E-01  2.9593228824830E-02
4  3.0000000000000E-02  4.5495901759128E-01 -1.8279581983124E-01  4.5250376138162E-02
5  4.0000000000000E-02  6.0207725056490E-01 -2.3791222725826E-01  6.1887472962740E-02
6  5.0000000000000E-02  7.4537566537966E-01 -2.8820896896393E-01  7.9745675830020E-02
7  6.0000000000000E-02  8.8398128740154E-01 -3.3268114759645E-01  9.8997413945085E-02
8  7.0000000000000E-02  1.0170728677900E+00 -3.7044764240656E-01  1.1973469044149E-01
9  8.0000000000000E-02  1.1438884396813E+00 -4.0076677246767E-01  1.4196072481958E-01
10  9.0000000000000E-02  1.2637315226972E+00 -4.2304758510732E-01  1.6558530628816E-01
11  1.0000000000000E-01  1.3759758820945E+00 -4.3685649410393E-01  1.9042408413748E-01
12  1.1000000000000E-01  1.4800687996496E+00 -4.4191916733501E-01  2.1620186872420E-01
13  1.2000000000000E-01  1.5755328649189E+00 -4.3811774141259E-01  2.4255986095608E-01
14  1.3000000000000E-01  1.6619663458050E+00 -4.2548361437040E-01  2.6906657527478E-01
15  1.4000000000000E-01  1.7390422443982E+00 -4.0418622983164E-01  2.9523207687423E-01
16  1.5000000000000E-01  1.8065061860111E+00 -3.7451841088090E-01  3.2052502376621E-01
17  1.6000000000000E-01  1.8641733245379E+00 -3.3687892338958E-01  3.4439189327640E-01
18  1.7000000000000E-01  1.9119244743894E+00 -2.9175304203777E-01  3.6627768485555E-01
19  1.8000000000000E-01  1.9497016972327E+00 -2.3969195409223E-01  3.8564733006571E-01
20  1.9000000000000E-01  1.9775035799566E+00 -1.8129186376178E-01  4.0200700858046E-01
21  2.0000000000000E-01  1.9953804384038E+00 -1.1717365265027E-01  4.1492456723732E-01
22  2.1000000000000E-01  2.0034296696233E+00 -4.7963909860003E-02  4.2404826767341E-01
23  2.2000000000000E-01  2.0017914542419E+00  2.5721929554612E-02  4.2912314578224E-01
24  2.3000000000000E-01  1.9906449809693E+00  1.0329370369995E-01  4.3000435094927E-01
25  2.4000000000000E-01  1.9702053285231E+00  1.8419739652639E-01  4.2666694155351E-01
26  2.5000000000000E-01  1.9407210979506E+00  2.6792241029220E-01  4.1921174143171E-01
27  2.6000000000000E-01  1.9024728422677E+00  3.5400504819304E-01  4.0786700503514E-01
28  2.7000000000000E-01  1.8557722924634E+00  4.4202818897534E-01  3.9298579146384E-01
29  2.8000000000000E-01  1.8009623313150E+00  5.3161730699167E-01  3.7503910365748E-01
30  2.9000000000000E-01  1.7384176211415E+00  6.2243315598293E-01  3.5460500289369E-01
31  3.0000000000000E-01  1.6685457505597E+00  7.1416158609030E-01  3.3235405459508E-01
32  3.1000000000000E-01  1.5917887302888E+00  8.0650109496113E-01  3.0903159381409E-01
33  3.2000000000000E-01  1.5086246406219E+00  8.9914881987334E-01  2.8543741272467E-01
34  3.3000000000000E-01  1.4195692145928E+00  9.9178575410408E-01  2.6240356377973E-01
35  3.4000000000000E-01  1.3251771320072E+00  1.0840620140626E+00  2.4077103755867E-01
36  3.5000000000000E-01  1.2260428008606E+00  1.1755829920729E+00  2.2136611140208E-01
37  3.6000000000000E-01  1.1228004143215E+00  1.2658972025993E+00  2.0497717245228E-01
38  3.7000000000000E-01  1.0161230930587E+00  1.3544865680837E+00  1.9233279659020E-01
39  3.8000000000000E-01  9.0672095348573E-01  1.4407597967198E+00  1.8408181398692E-01
40  3.9000000000000E-01  7.9533798133344E-01  1.5240493820495E+00  1.8077601468566E-01
41  4.0000000000000E-01  6.8274763537746E-01  1.6036126080387E+00  1.8285604689389E-01
42  4.1000000000000E-01  5.6974715635778E-01  1.6786367790471E+00  1.9064094049113E-01
43  4.2000000000000E-01  4.5715060918044E-01  1.7482487183757E+00  2.0432155332075E-01
44  4.3000000000000E-01  3.4578074025926E-01  1.8115283988941E+00  2.2395809338870E-01
45  4.4000000000000E-01  2.3645978419483E-01  1.8675263918283E+00  2.4948172166289E-01
46  4.5000000000000E-01  1.2999940276427E-01  1.9152846523080E+00  2.8070009344213E-01
47  4.6000000000000E-01  2.7189982421503E-02  1.9538600094884E+00  3.1730655675663E-01
48  4.7000000000000E-01 -7.1210447626559E-02  1.9823496011587E+00  3.5889259922530E-01
49  4.8000000000000E-01 -1.6448738770678E-01  1.9999173929482E+00  4.0496302488211E-01
50  4.9000000000000E-01 -2.5198082433541E-01  2.0058208547399E+00  4.5495325369868E-01
51  5.0000000000000E-01 -3.3309565917069E-01  1.9994368345617E+00  5.0824807198179E-01
52  5.1000000000000E-01 -4.0731130334766E-01  1.9802856745757E+00  5.6420112366671E-01
53  5.2000000000000E-01 -4.7419014661057E-01  1.9480526548557E+00  6.2215442185443E-01
54  5.3000000000000E-01 -5.3338463767200E-01  1.9026059270744E+00  6.8145717678423E-01
55  5.4000000000000E-01 -5.8464274900699E-01  1.8440102091745E+00  7.4148327972604E-01
56  5.5000000000000E-01 -6.2781164454708E-01  1.7725356495366E+00  8.0164684996023E-01
57  5.6000000000000E-01 -6.6283942084580E-01  1.6886614298519E+00  8.6141534108102E-01
58  5.7000000000000E-01 -6.8977484935116E-01  1.5930738537488E+00  9.2031980951833E-01
59  5.8000000000000E-01 -7.0876510736050E-01  1.4866588564373E+00  9.7796206799087E-01
60  5.9000000000000E-01 -7.2005154585081E-01  1.3704890620175E+00  1.0340185746857E+00
61  6.0000000000000E-01 -7.2396360145686E-01  1.2458057023842E+00  1.0882410401635E+00
62  6.1000000000000E-01 -7.2091101525785E-01  1.1139958877105E+00  1.1404538631271E+00
63  6.2000000000000E-01 -7.1137457072233E-01  9.7656587668833E-01  1.1905486282204E+00
64  6.3000000000000E-01 -6.9589560538008E-01  8.3511112910830E-01  1.2384760092939E+00
65  6.4000000000000E-01 -6.7506458405198E-01  6.9128402902866E-01  1.2842355159308E+00
66  6.5000000000000E-01 -6.4950904465509E-01  5.4676023990963E-01  1.3278635960664E+00
67  6.6000000000000E-01 -6.1988123997444E-01  4.0320469116814E-01  1.3694206606381E+00
68  6.7000000000000E-01 -5.8684580005257E-01  2.6223819753613E-01  1.4089776257035E+00
69  6.8000000000000E-01 -5.5106773011227E-01  1.2540567868550E-01  1.4466025726489E+00
70  6.9000000000000E-01 -5.1320103874469E-01 -5.8531214618575E-03  1.4823481082700E+00
71  7.0000000000000E-01 -4.7387826140318E-01 -1.3022961546815E-01  1.5162399648671E+00
72  7.1000000000000E-01 -4.3370110634304E-01 -2.4656837890075E-01  1.5482673182215E+00
73  7.2000000000000E-01 -3.9323240562343E-01 -3.5388465607648E-01  1.5783752212974E+00
74  7.3000000000000E-01 -3.5298950447790E-01 -4.5137700178899E-01  1.6064594573707E+00
75  7.4000000000000E-01 -3.1343917022614E-01 -5.3843486826027E-01  1.6323640120699E+00
76  7.5000000000000E-01 -2.7499404900346E-01 -6.1464112136444E-01  1.6558812539533E+00
77  7.6000000000000E-01 -2.3801064695919E-01 -6.7976964055898E-01  1.6767548022816E+00
78  7.7000000000000E-01 -2.0278876415494E-01 -7.3377831647521E-01  1.6946849530508E+00
79  7.8000000000000E-01 -1.6957226595907E-01 -7.7679790282262E-01  1.7093364343969E+00
80  7.9000000000000E-01 -1.3855103979800E-01 -8.0911730006392E-01  1.7203481740024E+00
81  8.0000000000000E-01 -1.0986395591996E-01 -8.3116594306929E-01  1.7273446874134E+00
82  8.1000000000000E-01 -8.3602630225638E-02 -8.4349403067980E-01  1.7299486398241E+00
83  8.2000000000000E-01 -5.9815775727781E-02 -8.4675137004568E-01  1.7277940967242E+00
84  8.3000000000000E-01 -3.8513926927913E-02 -8.4166561231392E-01  1.7205399618373E+00
85  8.4000000000000E-01 -1.9674328073074E-02 -8.2902062953856E-01  1.7078831041502E+00
86  8.5000000000000E-01 -3.2457912364207E-03 -8.0963572765007E-01  1.6895706988486E+00
87  8.6000000000000E-01  1.0846647514641E-02 -7.8434631010684E-01  1.6654113481543E+00
88  8.7000000000000E-01  2.2697417192761E-02 -7.5398650559207E-01  1.6352846052294E+00
89  8.8000000000000E-01  3.2416556516643E-02 -7.1937415569470E-01  1.5991485946942E+00
90  8.9000000000000E-01  4.0126388388149E-02 -6.8129843033914E-01  1.5570455036743E+00
91  9.0000000000000E-01  4.5958761223375E-02 -6.4051020550549E-01  1.5091048041236E+00
92  9.1000000000000E-01  5.0052857262374E-02 -5.9771520524934E-01  1.4555441567800E+00
93  9.2000000000000E-01  5.2553533149402E-02 -5.5356978369525E-01  1.3966680358578E+00
94  9.3000000000000E-01  5.3610126782747E-02 -5.0867910764228E-01  1.3328641979658E+00
95  9.4000000000000E-01  5.3375637942897E-02 -4.6359740103267E-01  1.2645981956487E+00
96  9.5000000000000E-01  5.2006169558513E-02 -4.1882983243486E-01  1.1924062026184E+00
97  9.6000000000000E-01  4.9660502363323E-02 -3.7483556841321E-01  1.1168864720735E+00
98  9.7000000000000E-01  4.6499668540783E-02 -3.3203148077028E-01  1.0386897899259E+00
99  9.8000000000000E-01  4.2686389794989E-02 -2.9079598454631E-01  9.5850931043561E-01
100  9.9000000000000E-01  3.8384251865772E-02 -2.5147249570497E-01  8.7707017251182E-01
101  1.0000000000000E+00  3.3756500237126E-02 -2.1437203091717E-01  7.9511929125570E-01
102  1.0100000000000E+00  2.8964359820342E-02 -1.7977452416264E-01  7.1341570229533E-01
103  1.0200000000000E+00  2.4164803627280E-02 -1.4792850255850E-01  6.3272180776910E-01
104  1.0300000000000E+00  1.9507720671663E-02 -1.1904884303900E-01  5.5379583444050E-01
105  1.0400000000000E+00  1.5132460132264E-02 -9.3312417711295E-02  4.7738576884906E-01
106  1.0500000000000E+00  1.1163755802373E-02 -7.0851524423247E-02  4.0422498417665E-01
107  1.0600000000000E+00  7.7070606984269E-03 -5.1745085949886E-02  3.3502972116008E-01
108  1.0700000000000E+00  4.8433450377542E-03 -3.6007681711053E-02  2.7049853366202E-01
109  1.0800000000000E+00  2.6233168991907E-03 -2.3576203610069E-02  2.1131376966977E-01
110  1.0900000000000E+00  1.0619856561699E-03 -1.4296840438839E-02  1.5814504327531E-01
111  1.1000000000000E+00  8.1763683797610E-05 -7.7547216121475E-03  1.1165696862986E-01
112  1.1100000000000E+00 -4.6118853322240E-04 -3.3527097361515E-03  7.2509118122972E-02
113  1.1200000000000E+00 -5.9981404886358E-04 -8.6193205835806E-04  4.1318399482825E-02
114  1.1300000000000E+00 -4.4078299934017E-04  1.2313530335682E-04  1.8598360676777E-02
115  1.1400000000000E+00 -1.5899357735569E-04  1.6885921848352E-04  4.7063789832666E-03
116  1.1500000000000E+00 -4.8525807342195E-07  6.7441801425117E-07  1.1780521273283E-05
117  1.1600000000000E+00 -1.3875157482549E-06  1.9915046198514E-06  3.2527325027114E-05
118  1.1700000000000E+00  8.4139974794880E-08 -1.0478956647798E-07 -2.2345262714090E-06
119  1.18  0.  0.  0.
120  1.19  0.  0.  0.
121  1.20  0.  0.  0.
122  1.21  0.  0.  0.
123  1.22  0.  0.  0.
124  1.23  0.  0.  0.
125  1.24  0.  0.  0.
126  1.25  0.  0.  0.
127  1.26  0.  0.  0.
128  1.27  0.  0.  0.
129  1.28  0.  0.  0.
130  1.29  0.  0.  0.
131  1.30  0.  0.  0.
132  1.31  0.  0.  0.
133  1.32  0.  0.  0.
134  1.33  0.  0.  0.
135  1.34  0.  0.  0.
136  1.35  0.  0.  0.
137  1.36  0.  0.  0.
138  1.37  0.  0.  0.
139  1.38  0.  0.  0.
140  1.39  0.  0.  0.
141  1.40  0.  0.  0.
142  1.41  0.  0.  0.
143  1.42  0.  0.  0.
144  1.43  0.  0.  0.
145  1.44  0.  0.  0.
146  1.45  0.  0.  0.
147  1.46  0.  0.  0.
148  1.47  0.  0.  0.
149  1.48  0.  0.  0.
150  1.49  0.  0.  0.
151  1.50  0.  0.  0.
152  1.51  0.  0.  0.
153  1.52  0.  0.  0.
154  1.53  0.  0.  0.
155  1.54  0.  0.  0.
156  1.55  0.  0.  0.
157  1.56  0.  0.  0.
158  1.57  0.  0.  0.
159  1.58  0.  0.  0.
160  1.59  0.  0.  0.
161  1.60  0.  0.  0.
162  1.61  0.  0.  0.
163  1.62  0.  0.  0.
164  1.63  0.  0.  0.
165  1.64  0.  0.  0.
166  1.65  0.  0.  0.
167  1.66  0.  0.  0.
168  1.67  0.  0.  0.
169  1.68  0.  0.  0.
170  1.69  0.  0.  0.
171  1.70  0.  0.  0.
172  1.71  0.  0.  0.
173  1.72  0.  0.  0.
174  1.73  0.  0.  0.
175  1.74  0.  0.  0.
176  1.75  0.  0.  0.
177  1.76  0.  0.  0.
178  1.77  0.  0.  0.
179  1.78  0.  0.  0.
180  1.79  0.  0.  0.
181  1.80  0.  0.  0.
182  1.81  0.  0.  0.
183  1.82  0.  0.  0.
184  1.83  0.  0.  0.
185  1.84  0.  0.  0.
186  1.85  0.  0.  0.
187  1.86  0.  0.  0.
188  1.87  0.  0.  0.
189  1.88  0.  0.  0.
190  1.89  0.  0.  0.
191  1.90  0.  0.  0.
192  1.91  0.  0.  0.
193  1.92  0.  0.  0.
194  1.93  0.  0.  0.
195  1.94  0.  0.  0.
196  1.95  0.  0.  0.
197  1.96  0.  0.  0.
198  1.97  0.  0.  0.
199  1.98  0.  0.  0.
200  1.99  0.  0.  0.
201  2.00  0.  0.  0.
202  2.01  0.  0.  0.
203  2.02  0.  0.  0.
204  2.03  0.  0.  0.
205  2.04  0.  0.  0.
206  2.05  0.  0.  0.
207  2.06  0.  0.  0.
208  2.07  0.  0.  0.
209  2.08  0.  0.  0.
210  2.09  0.  0.  0.
211  2.10  0.  0.  0.
212  2.11  0.  0.  0.
213  2.12  0.  0.  0.
214  2.13  0.  0.  0.
215  2.14  0.  0.  0.
216  2.15  0.  0.  0.
217  2.16  0.  0.  0.
218  2.17  0.  0.  0.
219  2.18  0.  0.  0.
220  2.19  0.  0.  0.
221  2.20  0.  0.  0.
222  2.21  0.  0.  0.
223  2.22  0.  0.  0.
224  2.23  0.  0.  0.
225  2.24  0.  0.  0.
226  2.25  0.  0.  0.
227  2.26  0.  0.  0.
228  2.27  0.  0.  0.
229  2.28  0.  0.  0.
230  2.29  0.  0.  0.
231  2.30  0.  0.  0.
232  2.31  0.  0.  0.
233  2.32  0.  0.  0.
234  2.33  0.  0.  0.
235  2.34  0.  0.  0.
236  2.35  0.  0.  0.
237  2.36  0.  0.  0.
238  2.37  0.  0.  0.
239  2.38  0.  0.  0.
240  2.39  0.  0.  0.
241  2.40  0.  0.  0.
242  2.41  0.  0.  0.
243  2.42  0.  0.  0.
244  2.43  0.  0.  0.
245  2.44  0.  0.  0.
246  2.45  0.  0.  0.
247  2.46  0.  0.  0.
248  2.47  0.  0.  0.
249  2.48  0.  0.  0.
250  2.49  0.  0.  0.
251  2.50  0.  0.  0.
252  2.51  0.  0.  0.
253  2.52  0.  0.  0.
254  2.53  0.  0.  0.
255  2.54  0.  0.  0.
256  2.55  0.  0.  0.
257  2.56  0.  0.  0.
258  2.57  0.  0.  0.
259  2.58  0.  0.  0.
260  2.59  0.  0.  0.
261  2.60  0.  0.  0.
262  2.61  0.  0.  0.
263  2.62  0.  0.  0.
264  2.63  0.  0.  0.
265  2.64  0.  0.  0.
266  2.65  0.  0.  0.
267  2.66  0.  0.  0.
268  2.67  0.  0.  0.
269  2.68  0.  0.  0.
270  2.69  0.  0.  0.
271  2.70  0.  0.  0.
272  2.71  0.  0.  0.
273  2.72  0.  0.  0.
274  2.73  0.  0.  0.
275  2.74  0.  0.  0.
276  2.75  0.  0.  0.
277  2.76  0.  0.  0.
278  2.77  0.  0.  0.
279  2.78  0.  0.  0.
280  2.79  0.  0.  0.
281  2.80  0.  0.  0.
282  2.81  0.  0.  0.
283  2.82  0.  0.  0.
284  2.83  0.  0.  0.
285  2.84  0.  0.  0.
286  2.85  0.  0.  0.
287  2.86  0.  0.  0.
288  2.87  0.  0.  0.
289  2.88  0.  0.  0.
290  2.89  0.  0.  0.
291  2.90  0.  0.  0.
292  2.91  0.  0.  0.
293  2.92  0.  0.  0.
294  2.93  0.  0.  0.
295  2.94  0.  0.  0.
296  2.95  0.  0.  0.
297  2.96  0.  0.  0.
298  2.97  0.  0.  0.
299  2.98  0.  0.  0.
300  2.99  0.  0.  0.
301  3.00  0.  0.  0.
302  3.01  0.  0.  0.
303  3.02  0.  0.  0.
304  3.03  0.  0.  0.
305  3.04  0.  0.  0.
306  3.05  0.  0.  0.
307  3.06  0.  0.  0.
308  3.07  0.  0.  0.
309  3.08  0.  0.  0.
310  3.09  0.  0.  0.
311  3.10  0.  0.  0.
312  3.11  0.  0.  0.
313  3.12  0.  0.  0.
314  3.13  0.  0.  0.
315  3.14  0.  0.  0.
316  3.15  0.  0.  0.
317  3.16  0.  0.  0.
318  3.17  0.  0.  0.
319  3.18  0.  0.  0.
320  3.19  0.  0.  0.
321  3.20  0.  0.  0.
322  3.21  0.  0.  0.
323  3.22  0.  0.  0.
324  3.23  0.  0.  0.
325  3.24  0.  0.  0.
326  3.25  0.  0.  0.
327  3.26  0.  0.  0.
328  3.27  0.  0.  0.
329  3.28  0.  0.  0.
330  3.29  0.  0.  0.
331  3.30  0.  0.  0.
332  3.31  0.  0.  0.
333  3.32  0.  0.  0.
334  3.33  0.  0.  0.
335  3.34  0.  0.  0.
336  3.35  0.  0.  0.
337  3.36  0.  0.  0.
338  3.37  0.  0.  0.
339  3.38  0.  0.  0.
340  3.39  0.  0.  0.
341  3.40  0.  0.  0.
342  3.41  0.  0.  0.
343  3.42  0.  0.  0.
344  3.43  0.  0.  0.
345  3.44  0.  0.  0.
346  3.45  0.  0.  0.
347  3.46  0.  0.  0.
348  3.47  0.  0.  0.
349  3.48  0.  0.  0.
350  3.49  0.  0.  0.
351  3.50  0.  0.  0.
352  3.51  0.  0.  0.
353  3.52  0.  0.  0.
354  3.53  0.  0.  0.
355  3.54  0.  0.  0.
356  3.55  0.  0.  0.
357  3.56  0.  0.  0.
358  3.57  0.  0.  0.
359  3.58  0.  0.  0.
360  3.59  0.  0.  0.
361  3.60  0.  0.  0.
362  3.61  0.  0.  0.
363  3.62  0.  0.  0.
364  3.63  0.  0.  0.
365  3.64  0.  0.  0.
366  3.65  0.  0.  0.
367  3.66  0.  0.  0.
368  3.67  0.  0.  0.
369  3.68  0.  0.  0.
370  3.69  0.  0.  0.
371  3.70  0.  0.  0.
372  3.71  0.  0.  0.
373  3.72  0.  0.  0.
374  3.73  0.  0.  0.
375  3.74  0.  0.  0.
376  3.75  0.  0.  0.
377  3.76  0.  0.  0.
378  3.77  0.  0.  0.
379  3.78  0.  0.  0.
380  3.79  0.  0.  0.
381  3.80  0.  0.  0.
382  3.81  0.  0.  0.
383  3.82  0.  0.  0.
384  3.83  0.  0.  0.
385  3.84  0.  0.  0.
386  3.85  0.  0.  0.
387  3.86  0.  0.  0.
388  3.87  0.  0.  0.
389  3.88  0.  0.  0.
390  3.89  0.  0.  0.
391  3.90  0.  0.  0.
392  3.91  0.  0.  0.
393  3.92  0.  0.  0.
394  3.93  0.  0.  0.
395  3.94  0.  0.  0.
396  3.95  0.  0.  0.
397  3.96  0.  0.  0.
398  3.97  0.  0.  0.
399  3.98  0.  0.  0.
400  3.99  0.  0.  0.
401  4.00  0.  0.  0.
402  4.01  0.  0.  0.
403  4.02  0.  0.  0.
404  4.03  0.  0.  0.
405  4.04  0.  0.  0.
406  4.05  0.  0.  0.
407  4.06  0.  0.  0.
408  4.07  0.  0.  0.
409  4.08  0.  0.  0.
410  4.09  0.  0.  0.
411  4.10  0.  0.  0.
412  4.11  0.  0.  0.
413  4.12  0.  0.  0.
414  4.13  0.  0.  0.
415  4.14  0.  0.  0.
416  4.15  0.  0.  0.
417  4.16  0.  0.  0.
418  4.17  0.  0.  0.
419  4.18  0.  0.  0.
420  4.19  0.  0.  0.
421  4.20  0.  0.  0.
422  4.21  0.  0.  0.
423  4.22  0.  0.  0.
424  4.23  0.  0.  0.
425  4.24  0.  0.  0.
426  4.25  0.  0.  0.
427  4.26  0.  0.  0.
428  4.27  0.  0.  0.
429  4.28  0.  0.  0.
430  4.29  0.  0.  0.
431  4.30  0.  0.  0.
432  4.31  0.  0.  0.
433  4.32  0.  0.  0.
434  4.33  0.  0.  0.
435  4.34  0.  0.  0.
436  4.35  0.  0.  0.
437  4.36  0.  0.  0.
438  4.37  0.  0.  0.
439  4.38  0.  0.  0.
440  4.39  0.  0.  0.
441  4.40  0.  0.  0.
442  4.41  0.  0.  0.
443  4.42  0.  0.  0.
444  4.43  0.  0.  0.
445  4.44  0.  0.  0.
446  4.45  0.  0.  0.
447  4.46  0.  0.  0.
448  4.47  0.  0.  0.
449  4.48  0.  0.  0.
450  4.49  0.  0.  0.
451  4.50  0.  0.  0.
452  4.51  0.  0.  0.
453  4.52  0.  0.  0.
454  4.53  0.  0.  0.
455  4.54  0.  0.  0.
456  4.55  0.  0.  0.
457  4.56  0.  0.  0.
458  4.57  0.  0.  0.
459  4.58  0.  0.  0.
460  4.59  0.  0.  0.
461  4.60  0.  0.  0.
462  4.61  0.  0.  0.
463  4.62  0.  0.  0.
464  4.63  0.  0.  0.
465  4.64  0.  0.  0.
466  4.65  0.  0.  0.
467  4.66  0.  0.  0.
468  4.67  0.  0.  0.
469  4.68  0.  0.  0.
470  4.69  0.  0.  0.
471  4.70  0.  0.  0.
472  4.71  0.  0.  0.
473  4.72  0.  0.  0.
474  4.73  0.  0.  0.
475  4.74  0.  0.  0.
476  4.75  0.  0.  0.
477  4.76  0.  0.  0.
478  4.77  0.  0.  0.
479  4.78  0.  0.  0.
480  4.79  0.  0.  0.
481  4.80  0.  0.  0.
482  4.81  0.  0.  0.
483  4.82  0.  0.  0.
484  4.83  0.  0.  0.
485  4.84  0.  0.  0.
486  4.85  0.  0.  0.
487  4.86  0.  0.  0.
488  4.87  0.  0.  0.
489  4.88  0.  0.  0.
490  4.89  0.  0.  0.
491  4.90  0.  0.  0.
492  4.91  0.  0.  0.
493  4.92  0.  0.  0.
494  4.93  0.  0.  0.
495  4.94  0.  0.  0.
496  4.95  0.  0.  0.
497  4.96  0.  0.  0.
498  4.97  0.  0.  0.
499  4.98  0.  0.  0.
500  4.99  0.  0.  0.
501  5.00  0.  0.  0.
502  5.01  0.  0.  0.
503  5.02  0.  0.  0.
504  5.03  0.  0.  0.
505  5.04  0.  0.  0.
506  5.05  0.  0.  0.
507  5.06  0.  0.  0.
508  5.07  0.  0.  0.
509  5.08  0.  0.  0.
510  5.09  0.  0.  0.
511  5.10  0.  0.  0.
512  5.11  0.  0.  0.
513  5.12  0.  0.  0.
514  5.13  0.  0.  0.
515  5.14  0.  0.  0.
516  5.15  0.  0.  0.
517  5.16  0.  0.  0.
518  5.17  0.  0.  0.
519  5.18  0.  0.  0.
520  5.19  0.  0.  0.
521  5.20  0.  0.  0.
522  5.21  0.  0.  0.
523  5.22  0.  0.  0.
524  5.23  0.  0.  0.
525  5.24  0.  0.  0.
526  5.25  0.  0.  0.
527  5.26  0.  0.  0.
528  5.27  0.  0.  0.
529  5.28  0.  0.  0.
530  5.29  0.  0.  0.
531  5.30  0.  0.  0.
532  5.31  0.  0.  0.
533  5.32  0.  0.  0.
534  5.33  0.  0.  0.
535  5.34  0.  0.  0.
536  5.35  0.  0.  0.
537  5.36  0.  0.  0.
538  5.37  0.  0.  0.
539  5.38  0.  0.  0.
540  5.39  0.  0.  0.
541  5.40  0.  0.  0.
542  5.41  0.  0.  0.
543  5.42  0.  0.  0.
544  5.43  0.  0.  0.
545  5.44  0.  0.  0.
546  5.45  0.  0.  0.
547  5.46  0.  0.  0.
548  5.47  0.  0.  0.
549  5.48  0.  0.  0.
550  5.49  0.  0.  0.
551  5.50  0.  0.  0.
552  5.51  0.  0.  0.
553  5.52  0.  0.  0.
554  5.53  0.  0.  0.
555  5.54  0.  0.  0.
556  5.55  0.  0.  0.
557  5.56  0.  0.  0.
558  5.57  0.  0.  0.
559  5.58  0.  0.  0.
560  5.59  0.  0.  0.
561  5.60  0.  0.  0.
562  5.61  0.  0.  0.
563  5.62  0.  0.  0.
564  5.63  0.  0.  0.
565  5.64  0.  0.  0.
566  5.65  0.  0.  0.
567  5.66  0.  0.  0.
568  5.67  0.  0.  0.
569  5.68  0.  0.  0.
570  5.69  0.  0.  0.
571  5.70  0.  0.  0.
572  5.71  0.  0.  0.
573  5.72  0.  0.  0.
574  5.73  0.  0.  0.
575  5.74  0.  0.  0.
576  5.75  0.  0.  0.
577  5.76  0.  0.  0.
578  5.77  0.  0.  0.
579  5.78  0.  0.  0.
580  5.79  0.  0.  0.
581  5.80  0.  0.  0.
582  5.81  0.  0.  0.
583  5.82  0.  0.  0.
584  5.83  0.  0.  0.
585  5.84  0.  0.  0.
586  5.85  0.  0.  0.
587  5.86  0.  0.  0.
588  5.87  0.  0.  0.
589  5.88  0.  0.  0.
590  5.89  0.  0.  0.
591  5.90  0.  0.  0.
592  5.91  0.  0.  0.
593  5.92  0.  0.  0.
594  5.93  0.  0.  0.
595  5.94  0.  0.  0.
596  5.95  0.  0.  0.
597  5.96  0.  0.  0.
598  5.97  0.  0.  0.
599  5.98  0.  0.  0.
600  5.99  0.  0.  0.
1                         6.7638357702274E+00 -2.2209285449192E+00
1  0.0000000000000E+00  8.5521436599123E-09  4.5722430092043E-08
2  1.0000000000000E-02  3.0927550446283E-03 -2.5516142849456E-03
3  2.0000000000000E-02  1.2347120319973E-02 -1.0196256928978E-02
4  3.0000000000000E-02  2.7691665640649E-02 -2.2902691394580E-02
5  4.0000000000000E-02  4.9008233160322E-02 -4.0616768964820E-02
6  5.0000000000000E-02  7.6133256958737E-02 -6.3258407357207E-02
7  6.0000000000000E-02  1.0885957282015E-01 -9.0717577286029E-02
8  7.0000000000000E-02  1.4693868187256E-01 -1.2284950384858E-01
9  8.0000000000000E-02  1.9008342320514E-01 -1.5946933533302E-01
10  9.0000000000000E-02  2.3797100331930E-01 -2.0034656835890E-01
11  1.0000000000000E-01  2.9024632449780E-01 -2.4519954375170E-01
12  1.1000000000000E-01  3.4652555004748E-01 -2.9369034117354E-01
13  1.2000000000000E-01  4.0639984198572E-01 -3.4542040164784E-01
14  1.3000000000000E-01  4.6943920614227E-01 -3.9992719551732E-01
15  1.4000000000000E-01  5.3519638082491E-01 -4.5668222929965E-01
16  1.5000000000000E-01  6.0321070807932E-01 -5.1509064902148E-01
17  1.6000000000000E-01  6.7301193103861E-01 -5.7449265100736E-01
18  1.7000000000000E-01  7.4412386673195E-01 -6.3416685524337E-01
19  1.8000000000000E-01  8.1606791078704E-01 -6.9333573313278E-01
20  1.9000000000000E-01  8.8836633846375E-01 -7.5117311279386E-01
21  2.0000000000000E-01  9.6054537511084E-01 -8.0681371331526E-01
22  2.1000000000000E-01  1.0321380181434E+00 -8.5936458700573E-01
23  2.2000000000000E-01  1.1026866016810E+00 -9.0791827814161E-01
24  2.3000000000000E-01  1.1717451037577E+00 -9.5156744047519E-01
25  2.4000000000000E-01  1.2388812042108E+00 -9.8942059616851E-01
26  2.5000000000000E-01  1.3036781087044E+00 -1.0206186680070E+00
27  2.6000000000000E-01  1.3657361605940E+00 -1.0443518766129E+00
28  2.7000000000000E-01  1.4246742672877E+00 -1.0598765664704E+00
29  2.8000000000000E-01  1.4801311712435E+00 -1.0665315100586E+00
30  2.9000000000000E-01  1.5317665976606E+00 -1.0637532389904E+00
31  3.0000000000000E-01  1.5792623112145E+00 -1.0510899650487E+00
32  3.1000000000000E-01  1.6223231128717E+00 -1.0282136821874E+00
33  3.2000000000000E-01  1.6606778049536E+00 -9.9493008222698E-01
34  3.3000000000000E-01  1.6940801483326E+00 -9.5118597099695E-01
35  3.4000000000000E-01  1.7223098301134E+00 -8.9707393647026E-01
36  3.5000000000000E-01  1.7451734535899E+00 -8.3283409405608E-01
37  3.6000000000000E-01  1.7625055549583E+00 -7.5885281439623E-01
38  3.7000000000000E-01  1.7741696434792E+00 -6.7565842322411E-01
39  3.8000000000000E-01  1.7800592538517E+00 -5.8391394841503E-01
40  3.9000000000000E-01  1.7800989918049E+00 -4.8440707351735E-01
41  4.0000000000000E-01  1.7742455466519E+00 -3.7803753706174E-01
42  4.1000000000000E-01  1.7624886381081E+00 -2.6580229015451E-01
43  4.2000000000000E-01  1.7448518593233E+00 -1.4877878883144E-01
44  4.3000000000000E-01  1.7213933740848E+00 -2.8106850213880E-02
45  4.4000000000000E-01  1.6922064237103E+00  9.5030459134316E-02
46  4.5000000000000E-01  1.6574195984343E+00  2.1942640948313E-01
47  4.6000000000000E-01  1.6171968291934E+00  3.4387016640941E-01
48  4.7000000000000E-01  1.5717370586630E+00  4.6716582564933E-01
49  4.8000000000000E-01  1.5212735551724E+00  5.8815045088449E-01
50  4.9000000000000E-01  1.4660728396212E+00  7.0571067846874E-01
51  5.0000000000000E-01  1.4064332035737E+00  8.1879750444872E-01
52  5.1000000000000E-01  1.3426828061095E+00  9.2643893279684E-01
53  5.2000000000000E-01  1.2751773474699E+00  1.0277502374617E+00
54  5.3000000000000E-01  1.2042973287530E+00  1.1219416721751E+00
55  5.4000000000000E-01  1.1304449185087E+00  1.2083235481880E+00
56  5.5000000000000E-01  1.0540404587031E+00  1.2863086882906E+00
57  5.6000000000000E-01  9.7551865375441E-01  1.3554123525705E+00
58  5.7000000000000E-01  8.9532449681964E-01  1.4152498143359E+00
59  5.8000000000000E-01  8.1390899684023E-01  1.4655318405776E+00
60  5.9000000000000E-01  7.3172477771220E-01  1.5060583975553E+00
61  6.0000000000000E-01  6.4922162701077E-01  1.5367109561932E+00
62  6.1000000000000E-01  5.6684207573045E-01  1.5574438119739E+00
63  6.2000000000000E-01  4.8501709230514E-01  1.5682748584303E+00
64  6.3000000000000E-01  4.0416197362714E-01  1.5692762611718E+00
65  6.4000000000000E-01  3.2467251284503E-01  1.5605654702674E+00
66  6.5000000000000E-01  2.4692151841792E-01  1.5422969829392E+00
67  6.6000000000000E-01  1.7125575134842E-01  1.5146552267142E+00
68  6.7000000000000E-01  9.7993337894219E-02  1.4778488768227E+00
69  6.8000000000000E-01  2.7421703625179E-02  1.4321068526477E+00
70  6.9000000000000E-01 -4.0203938228176E-02  1.3776761588455E+00
71  7.0000000000000E-01 -1.0466152522489E-01  1.3148216501601E+00
72  7.1000000000000E-01 -1.6576250678230E-01  1.2438277081031E+00
73  7.2000000000000E-01 -2.2335163866200E-01  1.1650017258549E+00
74  7.3000000000000E-01 -2.7730623643331E-01  1.0786792084204E+00
75  7.4000000000000E-01 -3.2753492755997E-01  9.8523021159084E-01
76  7.5000000000000E-01 -3.7397595471413E-01  8.8506676889820E-01
77  7.6000000000000E-01 -4.1659509433849E-01  7.7865089344103E-01
78  7.7000000000000E-01 -4.5538326398087E-01  6.6650269381979E-01
79  7.8000000000000E-01 -4.9035389920043E-01  5.4920811255460E-01
80  7.9000000000000E-01 -5.2154018564836E-01  4.2742578282891E-01
81  8.0000000000000E-01 -5.4899223408985E-01  3.0189250613711E-01
82  8.1000000000000E-01 -5.7277428557848E-01  1.7342687967633E-01
83  8.2000000000000E-01 -5.9296203072381E-01  4.2930647682351E-02
84  8.3000000000000E-01 -6.0964012110393E-01 -8.8612585753842E-02
85  8.4000000000000E-01 -6.2289994255003E-01 -2.2014156532158E-01
86  8.5000000000000E-01 -6.3283770953225E-01 -3.5052470418114E-01
87  8.6000000000000E-01 -6.3955292754385E-01 -4.7857060012523E-01
88  8.7000000000000E-01 -6.4314725661324E-01 -6.0304172196588E-01
89  8.8000000000000E-01 -6.4372379432168E-01 -7.2267112449765E-01
90  8.9000000000000E-01 -6.4138678145292E-01 -8.3618193518295E-01
91  9.0000000000000E-01 -6.3624171815560E-01 -9.4230924472974E-01
92  9.1000000000000E-01 -6.2839586376497E-01 -1.0398239309582E+00
93  9.2000000000000E-01 -6.1795907970111E-01 -1.1275578545635E+00
94  9.3000000000000E-01 -6.0504496259688E-01 -1.2044297900419E+00
95  9.4000000000000E-01 -5.8977220442111E-01 -1.2694713981395E+00
96  9.5000000000000E-01 -5.7226610820697E-01 -1.3218525101838E+00
97  9.6000000000000E-01 -5.5266018234649E-01 -1.3609049813297E+00
98  9.7000000000000E-01 -5.3109773346562E-01 -1.3861443801715E+00
99  9.8000000000000E-01 -5.0773337775248E-01 -1.3972888166048E+00
100  9.9000000000000E-01 -4.8273439328427E-01 -1.3942742677820E+00
101  1.0000000000000E+00 -4.5628184129794E-01 -1.3772658421645E+00
102  1.0100000000000E+00 -4.2857139229829E-01 -1.3466645219715E+00
103  1.0200000000000E+00 -3.9981380311811E-01 -1.3031090419168E+00
104  1.0300000000000E+00 -3.7023500321279E-01 -1.2474726937974E+00
105  1.0400000000000E+00 -3.4007576215053E-01 -1.1808549880970E+00
106  1.0500000000000E+00 -3.0959092498736E-01 -1.1045682510598E+00
107  1.0600000000000E+00 -2.7904821751909E-01 -1.0201193843656E+00
108  1.0700000000000E+00 -2.4872663869770E-01 -9.2918715937558E-01
109  1.0800000000000E+00 -2.1891447232126E-01 -8.3359555488020E-01
110  1.0900000000000E+00 -1.8990696405636E-01 -7.3528377247844E-01
111  1.1000000000000E+00 -1.6200371203055E-01 -6.3627361137367E-01
112  1.1100000000000E+00 -1.3550572471039E-01 -5.3863435157771E-01
113  1.1200000000000E+00 -1.1070715383271E-01 -4.4441572192141E-01
114  1.1300000000000E+00 -8.7882593329345E-02 -3.5555277381232E-01
115  1.1400000000000E+00 -6.7282537852143E-02 -2.7381821548108E-01
116  1.1500000000000E+00 -4.9128539474476E-02 -2.0076164969138E-01
117  1.1600000000000E+00 -3.3595806546914E-02 -1.3752983370619E-01
118  1.1700000000000E+00 -2.0855964620675E-02 -8.5316253304386E-02
119  1.1800000000000E+00 -1.1054475142018E-02 -4.5078770088777E-02
120  1.1900000000000E+00 -4.3028381442437E-03 -1.7448841951862E-02
121  1.2000000000000E+00 -6.7697149498216E-04 -2.7233553629484E-03
122  1.2100000000000E+00  3.8748357347774E-05  1.5479607573466E-04
123  1.2200000000000E+00 -4.5784090976638E-06 -1.8345692075725E-05
124  1.23 -0.  0.
125  1.24  0.  0.
126  1.25  0.  0.
127  1.26  0.  0.
128  1.27  0.  0.
129  1.28  0.  0.
130  1.29  0.  0.
131  1.30  0.  0.
132  1.31  0.  0.
133  1.32  0.  0.
134  1.33  0.  0.
135  1.34  0.  0.
136  1.35  0.  0.
137  1.36  0.  0.
138  1.37  0.  0.
139  1.38  0.  0.
140  1.39  0.  0.
141  1.40  0.  0.
142  1.41  0.  0.
143  1.42  0.  0.
144  1.43  0.  0.
145  1.44  0.  0.
146  1.45  0.  0.
147  1.46  0.  0.
148  1.47  0.  0.
149  1.48  0.  0.
150  1.49  0.  0.
151  1.50  0.  0.