Cm    ONCVPSP-4.0.1  r_core=   1.15013   1.20650   1.10296   1.15013
96.0000     36.0000      231012    zatom,zion,pspd
8   -1012   3     4   600     0    pspcod,pspxc,lmax,lloc,mmax,r2well
5.99000000  5.00000000  0.00000000    rchrg fchrg qchrg
3     3     3     2    nproj
3     1           extension_switch
4     4     3    nprojso
0                         3.1835920381759E+01  3.4945781328818E+00 -3.9790878852485E-01
1  0.0000000000000E+00 -3.7502377869814E-08  1.2939941590462E-07  1.1623486778634E-07
2  1.0000000000000E-02  1.5265593476573E-01 -6.2987180443332E-02  1.3667051628493E-02
3  2.0000000000000E-02  3.0433219637389E-01 -1.2469482396893E-01  2.7715680838149E-02
4  3.0000000000000E-02  4.5406057279257E-01 -1.8387197100915E-01  4.2507200861288E-02
5  4.0000000000000E-02  6.0089548963163E-01 -2.3932388115380E-01  5.8363226319092E-02
6  5.0000000000000E-02  7.4392462782248E-01 -2.8993783968510E-01  7.5547867081158E-02
7  6.0000000000000E-02  8.8227872858732E-01 -3.3470629931789E-01  9.4252285404667E-02
8  7.0000000000000E-02  1.0151403613371E+00 -3.7274662944178E-01  1.1458226021113E-01
9  8.0000000000000E-02  1.1417514676400E+00 -4.0331687456104E-01  1.3654928612384E-01
10  9.0000000000000E-02  1.2614195384021E+00 -4.2582707547814E-01  1.6006559816525E-01
11  1.0000000000000E-01  1.3735223301559E+00 -4.3984587505712E-01  1.8494336102122E-01
12  1.1000000000000E-01  1.4775110779223E+00 -4.4510230846616E-01  2.1089810033111E-01
13  1.2000000000000E-01  1.5729122144567E+00 -4.4148285858768E-01  2.3755628872581E-01
14  1.3000000000000E-01  1.6593276567378E+00 -4.2902403364674E-01  2.6446683760462E-01
15  1.4000000000000E-01  1.7364337682925E+00 -4.0790088906891E-01  2.9111609309779E-01
16  1.5000000000000E-01  1.8039791484936E+00 -3.7841206262628E-01  3.1694579712863E-01
17  1.6000000000000E-01  1.8617814356481E+00 -3.4096201526648E-01  3.4137335722268E-01
18  1.7000000000000E-01  1.9097233381349E+00 -2.9604126479689E-01  3.6381367619016E-01
19  1.8000000000000E-01  1.9477481259865E+00 -2.4420546211684E-01  3.8370172856095E-01
20  1.9000000000000E-01  1.9758548234806E+00 -1.8605418753735E-01  4.0051503713586E-01
21  2.0000000000000E-01  1.9940933412394E+00 -1.2221033688920E-01  4.1379520150707E-01
22  2.1000000000000E-01  2.0025597741812E+00 -5.3300924001834E-02  4.2316766095709E-01
23  2.2000000000000E-01  2.0013920699947E+00  2.0059950428765E-02  4.2835893560201E-01
24  2.3000000000000E-01  1.9907662425619E+00  9.7285320398564E-02  4.2921067965903E-01
25  2.4000000000000E-01  1.9708932672532E+00  1.7782625610488E-01  4.2568999586724E-01
26  2.5000000000000E-01  1.9420167518559E+00  2.6117908806535E-01  4.1789559598758E-01
27  2.6000000000000E-01  1.9044114299246E+00  3.4688876380790E-01  4.0605954380315E-01
28  2.7000000000000E-01  1.8583824745579E+00  4.3454832168721E-01  3.9054447836649E-01
29  2.8000000000000E-01  1.8042655820995E+00  5.2379464113954E-01  3.7183638030681E-01
30  2.9000000000000E-01  1.7424277291030E+00  6.1430079641335E-01  3.5053310656422E-01
31  3.0000000000000E-01  1.6732684640952E+00  7.0576549460966E-01  3.2732907283720E-01
32  3.1000000000000E-01  1.5972215600314E+00  7.9790021238116E-01  3.0299660253479E-01
33  3.2000000000000E-01  1.5147568254360E+00  8.9041475332216E-01  2.7836458090272E-01
34  3.3000000000000E-01  1.4263818533348E+00  9.8300202541496E-01  2.5429514879577E-01
35  3.4000000000000E-01  1.3326434781042E+00  1.0753228815846E+00  2.3165923878798E-01
36  3.5000000000000E-01  1.2341287117941E+00  1.1669918745048E+00  2.1131179450447E-01
37  3.6000000000000E-01  1.1314649433917E+00  1.2575647487807E+00  1.9406752093363E-01
38  3.7000000000000E-01  1.0253192065367E+00  1.3465284304606E+00  1.8067798896073E-01
39  3.8000000000000E-01  9.1639635258755E-01  1.4332941778697E+00  1.7181086255882E-01
40  3.9000000000000E-01  8.0543600552019E-01  1.5171944327348E+00  1.6803193426471E-01
41  4.0000000000000E-01  6.9320822139661E-01  1.5974837613632E+00  1.6979054706792E-01
42  4.1000000000000E-01  5.8050782628132E-01  1.6733441081760E+00  1.7740885291615E-01
43  4.2000000000000E-01  4.6814746049212E-01  1.7438944048100E+00  1.9107521469519E-01
44  4.3000000000000E-01  3.5694941180725E-01  1.8082043944730E+00  2.1084190533436E-01
45  4.4000000000000E-01  2.4773637351152E-01  1.8653123506190E+00  2.3662710052968E-01
46  4.5000000000000E-01  1.4132131279416E-01  1.9142461985980E+00  2.6822100646988E-01
47  4.6000000000000E-01  3.8496678975998E-02  1.9540473956312E+00  3.0529581677032E-01
48  4.7000000000000E-01 -5.9976782483348E-02  1.9837967945188E+00  3.4741905909210E-01
49  4.8000000000000E-01 -1.5338131681156E-01  2.0026416152502E+00  3.9406977659247E-01
50  4.9000000000000E-01 -2.4105323699828E-01  2.0098225803782E+00  4.4465689661304E-01
51  5.0000000000000E-01 -3.2239347438045E-01  2.0047002375540E+00  4.9853907213299E-01
52  5.1000000000000E-01 -3.9687729127132E-01  1.9867794975236E+00  5.5504524273076E-01
53  5.2000000000000E-01 -4.6406286079475E-01  1.9557314581733E+00  6.1349515222406E-01
54  5.3000000000000E-01 -5.2359844656793E-01  1.9114116634579E+00  6.7321907976823E-01
55  5.4000000000000E-01 -5.7522795227200E-01  1.8538740573575E+00  7.3357608880226E-01
56  5.5000000000000E-01 -6.1879465714511E-01  1.7833800332246E+00  7.9397017159660E-01
57  5.6000000000000E-01 -6.5424300636744E-01  1.7004021426838E+00  8.5386376303950E-01
58  5.7000000000000E-01 -6.8161838325433E-01  1.6056222093735E+00  9.1278821162121E-01
59  5.8000000000000E-01 -7.0106485100891E-01  1.4999237843638E+00  9.7035092358986E-01
60  5.9000000000000E-01 -7.1282091327800E-01  1.3843790747141E+00  1.0262390327394E+00
61  6.0000000000000E-01 -7.1721340264514E-01  1.2602306669223E+00  1.0802195877588E+00
62  6.1000000000000E-01 -7.1464966229871E-01  1.1288685457340E+00  1.1321363860101E+00
63  6.2000000000000E-01 -7.0560823639006E-01  9.9180306915319E-01  1.1819037116537E+00
64  6.3000000000000E-01 -6.9062832725029E-01  8.5063469653237E-01  1.2294973522756E+00
65  6.4000000000000E-01 -6.7029831116103E-01  7.0702137328623E-01  1.2749433672183E+00
66  6.5000000000000E-01 -6.4524362764137E-01  5.6264454922720E-01  1.3183051590766E+00
67  6.6000000000000E-01 -6.1611436948337E-01  4.1917484524971E-01  1.3596694545768E+00
68  6.7000000000000E-01 -5.8357290174317E-01  2.7823838400199E-01  1.3991318305828E+00
69  6.8000000000000E-01 -5.4828182770529E-01  1.4138476462525E-01  1.4367824245746E+00
70  6.9000000000000E-01 -5.1089259905503E-01  1.0057591414421E-02  1.4726924469962E+00
71  7.0000000000000E-01 -4.7203503708099E-01 -1.1443163552750E-01  1.5069020667472E+00
72  7.1000000000000E-01 -4.3230799302049E-01 -2.3092558855418E-01  1.5394101731465E+00
73  7.2000000000000E-01 -3.9227133027681E-01 -3.3843861143751E-01  1.5701664310773E+00
74  7.3000000000000E-01 -3.5243936105448E-01 -4.3616928736503E-01  1.5990659446328E+00
75  7.4000000000000E-01 -3.1327581697852E-01 -5.2350788995459E-01  1.6259467327644E+00
76  7.5000000000000E-01 -2.7519037958761E-01 -6.0003870901390E-01  1.6505901029545E+00
77  7.6000000000000E-01 -2.3853674428722E-01 -6.6553741575019E-01  1.6727238906301E+00
78  7.7000000000000E-01 -2.0361214238364E-01 -7.1996379377811E-01  1.6920284176804E+00
79  7.8000000000000E-01 -1.7065820199919E-01 -7.6345030654155E-01  1.7081449175791E+00
80  7.9000000000000E-01 -1.3986299152762E-01 -7.9628709349530E-01  1.7206860813046E+00
81  8.0000000000000E-01 -1.1136406006606E-01 -8.1890408240095E-01  1.7292483009628E+00
82  8.1000000000000E-01 -8.5252268836265E-02 -8.3185097037085E-01  1.7334251294806E+00
83  8.2000000000000E-01 -6.1576196479625E-02 -8.3577586011799E-01  1.7328214368483E+00
84  8.3000000000000E-01 -4.0346899375228E-02 -8.3140333982992E-01  1.7270677271446E+00
85  8.4000000000000E-01 -2.1542815496174E-02 -8.1951276608269E-01  1.7158340860662E+00
86  8.5000000000000E-01 -5.1146161146084E-03 -8.0091745141255E-01  1.6988432550951E+00
87  8.6000000000000E-01  9.0101671095182E-03 -7.7644537484855E-01  1.6758823741235E+00
88  8.7000000000000E-01  2.0922882758678E-02 -7.4692192914276E-01  1.6468129969268E+00
89  8.8000000000000E-01  3.0729977124828E-02 -7.1315509764865E-01  1.6115790603069E+00
90  8.9000000000000E-01  3.8549760686454E-02 -6.7592332234216E-01  1.5702125745315E+00
91  9.0000000000000E-01  4.4509757613510E-02 -6.3596618821829E-01  1.5228368960515E+00
92  9.1000000000000E-01  4.8744634689837E-02 -5.9397791408465E-01  1.4696675394430E+00
93  9.2000000000000E-01  5.1394670607234E-02 -5.5060351125860E-01  1.4110105801711E+00
94  9.3000000000000E-01  5.2604694860521E-02 -5.0643735504051E-01  1.3472587893818E+00
95  9.4000000000000E-01  5.2523398746210E-02 -4.6202381352304E-01  1.2788857231658E+00
96  9.5000000000000E-01  5.1302900284973E-02 -4.1785949797396E-01  1.2064380587019E+00
97  9.6000000000000E-01  4.9098430960717E-02 -3.7439664126394E-01  1.1305265261362E+00
98  9.7000000000000E-01  4.6068005392093E-02 -3.3204707713662E-01  1.0518158264016E+00
99  9.8000000000000E-01  4.2371935466758E-02 -2.9118628390546E-01  9.7101395055835E-01
100  9.9000000000000E-01  3.8172057784122E-02 -2.5215697066898E-01  8.8886132554498E-01
101  1.0000000000000E+00  3.3630556859094E-02 -2.1527172057366E-01  8.0612020503925E-01
102  1.0100000000000E+00  2.8908285547156E-02 -1.8081426127461E-01  7.2356470369854E-01
103  1.0200000000000E+00  2.4162507421054E-02 -1.4903900396538E-01  6.4197184024115E-01
104  1.0300000000000E+00  1.9544012105541E-02 -1.2016857516682E-01  5.6211391184143E-01
105  1.0400000000000E+00  1.5193582396395E-02 -9.4389155177001E-02  4.8475247187009E-01
106  1.0500000000000E+00  1.1237819936834E-02 -7.1843529080338E-02  4.1063412788492E-01
107  1.0600000000000E+00  7.7843629130944E-03 -5.2621845976981E-02  3.4048831975670E-01
108  1.0700000000000E+00  4.9165532632092E-03 -3.6750164995680E-02  2.7502718184643E-01
109  1.0800000000000E+00  2.6875159414318E-03 -2.4176590880448E-02  2.1494755700874E-01
110  1.0900000000000E+00  1.1145870391964E-03 -1.4757759693982E-02  1.6093505115531E-01
111  1.1000000000000E+00  1.2151817222370E-04 -8.0854659023688E-03  1.1367577349439E-01
112  1.1100000000000E+00 -4.3498199611796E-04 -3.5661002948806E-03  7.3855011133840E-02
113  1.1200000000000E+00 -5.8541146535154E-04 -9.7997995748249E-04  4.2106965189411E-02
114  1.1300000000000E+00 -4.3487842219696E-04  7.2825548631356E-05  1.8963827901737E-02
115  1.1400000000000E+00 -1.5773330757783E-04  1.5714016694267E-04  4.8016817195259E-03
116  1.1500000000000E+00 -4.9400002601547E-07  6.5247301485432E-07  1.1999839285060E-05
117  1.1600000000000E+00 -1.3791263641679E-06  1.9167314830004E-06  3.3205674085987E-05
118  1.1700000000000E+00  8.3488687503330E-08 -9.9386403209754E-08 -2.2804992165324E-06
119  1.18  0.  0.  0.
120  1.19  0.  0.  0.
121  1.20  0.  0.  0.
122  1.21  0.  0.  0.
123  1.22  0.  0.  0.
124  1.23  0.  0.  0.
125  1.24  0.  0.  0.
126  1.25  0.  0.  0.
127  1.26  0.  0.  0.
128  1.27  0.  0.  0.
129  1.28  0.  0.  0.
130  1.29  0.  0.  0.
131  1.30  0.  0.  0.
132  1.31  0.  0.  0.
133  1.32  0.  0.  0.
134  1.33  0.  0.  0.
135  1.34  0.  0.  0.
136  1.35  0.  0.  0.
137  1.36  0.  0.  0.
138  1.37  0.  0.  0.
139  1.38  0.  0.  0.
140  1.39  0.  0.  0.
141  1.40  0.  0.  0.
142  1.41  0.  0.  0.
143  1.42  0.  0.  0.
144  1.43  0.  0.  0.
145  1.44  0.  0.  0.
146  1.45  0.  0.  0.
147  1.46  0.  0.  0.
148  1.47  0.  0.  0.
149  1.48  0.  0.  0.
150  1.49  0.  0.  0.
151  1.50  0.  0.  0.
152  1.51  0.  0.  0.
153  1.52  0.  0.  0.
154  1.53  0.  0.  0.
155  1.54  0.  0.  0.
156  1.55  0.  0.  0.
157  1.56  0.  0.  0.
158  1.57  0.  0.  0.
159  1.58  0.  0.  0.
160  1.59  0.  0.  0.
161  1.60  0.  0.  0.
162  1.61  0.  0.  0.
163  1.62  0.  0.  0.
164  1.63  0.  0.  0.
165  1.64  0.  0.  0.
166  1.65  0.  0.  0.
167  1.66  0.  0.  0.
168  1.67  0.  0.  0.
169  1.68  0.  0.  0.
170  1.69  0.  0.  0.
171  1.70  0.  0.  0.
172  1.71  0.  0.  0.
173  1.72  0.  0.  0.
174  1.73  0.  0.  0.
175  1.74  0.  0.  0.
176  1.75  0.  0.  0.
177  1.76  0.  0.  0.
178  1.77  0.  0.  0.
179  1.78  0.  0.  0.
180  1.79  0.  0.  0.
181  1.80  0.  0.  0.
182  1.81  0.  0.  0.
183  1.82  0.  0.  0.
184  1.83  0.  0.  0.
185  1.84  0.  0.  0.
186  1.85  0.  0.  0.
187  1.86  0.  0.  0.
188  1.87  0.  0.  0.
189  1.88  0.  0.  0.
190  1.89  0.  0.  0.
191  1.90  0.  0.  0.
192  1.91  0.  0.  0.
193  1.92  0.  0.  0.
194  1.93  0.  0.  0.
195  1.94  0.  0.  0.
196  1.95  0.  0.  0.
197  1.96  0.  0.  0.
198  1.97  0.  0.  0.
199  1.98  0.  0.  0.
200  1.99  0.  0.  0.
201  2.00  0.  0.  0.
202  2.01  0.  0.  0.
203  2.02  0.  0.  0.
204  2.03  0.  0.  0.
205  2.04  0.  0.  0.
206  2.05  0.  0.  0.
207  2.06  0.  0.  0.
208  2.07  0.  0.  0.
209  2.08  0.  0.  0.
210  2.09  0.  0.  0.
211  2.10  0.  0.  0.
212  2.11  0.  0.  0.
213  2.12  0.  0.  0.
214  2.13  0.  0.  0.
215  2.14  0.  0.  0.
216  2.15  0.  0.  0.
217  2.16  0.  0.  0.
218  2.17  0.  0.  0.
219  2.18  0.  0.  0.
220  2.19  0.  0.  0.
221  2.20  0.  0.  0.
222  2.21  0.  0.  0.
223  2.22  0.  0.  0.
224  2.23  0.  0.  0.
225  2.24  0.  0.  0.
226  2.25  0.  0.  0.
227  2.26  0.  0.  0.
228  2.27  0.  0.  0.
229  2.28  0.  0.  0.
230  2.29  0.  0.  0.
231  2.30  0.  0.  0.
232  2.31  0.  0.  0.
233  2.32  0.  0.  0.
234  2.33  0.  0.  0.
235  2.34  0.  0.  0.
236  2.35  0.  0.  0.
237  2.36  0.  0.  0.
238  2.37  0.  0.  0.
239  2.38  0.  0.  0.
240  2.39  0.  0.  0.
241  2.40  0.  0.  0.
242  2.41  0.  0.  0.
243  2.42  0.  0.  0.
244  2.43  0.  0.  0.
245  2.44  0.  0.  0.
246  2.45  0.  0.  0.
247  2.46  0.  0.  0.
248  2.47  0.  0.  0.
249  2.48  0.  0.  0.
250  2.49  0.  0.  0.
251  2.50  0.  0.  0.
252  2.51  0.  0.  0.
253  2.52  0.  0.  0.
254  2.53  0.  0.  0.
255  2.54  0.  0.  0.
256  2.55  0.  0.  0.
257  2.56  0.  0.  0.
258  2.57  0.  0.  0.
259  2.58  0.  0.  0.
260  2.59  0.  0.  0.
261  2.60  0.  0.  0.
262  2.61  0.  0.  0.
263  2.62  0.  0.  0.
264  2.63  0.  0.  0.
265  2.64  0.  0.  0.
266  2.65  0.  0.  0.
267  2.66  0.  0.  0.
268  2.67  0.  0.  0.
269  2.68  0.  0.  0.
270  2.69  0.  0.  0.
271  2.70  0.  0.  0.
272  2.71  0.  0.  0.
273  2.72  0.  0.  0.
274  2.73  0.  0.  0.
275  2.74  0.  0.  0.
276  2.75  0.  0.  0.
277  2.76  0.  0.  0.
278  2.77  0.  0.  0.
279  2.78  0.  0.  0.
280  2.79  0.  0.  0.
281  2.80  0.  0.  0.
282  2.81  0.  0.  0.
283  2.82  0.  0.  0.
284  2.83  0.  0.  0.
285  2.84  0.  0.  0.
286  2.85  0.  0.  0.
287  2.86  0.  0.  0.
288  2.87  0.  0.  0.
289  2.88  0.  0.  0.
290  2.89  0.  0.  0.
291  2.90  0.  0.  0.
292  2.91  0.  0.  0.
293  2.92  0.  0.  0.
294  2.93  0.  0.  0.
295  2.94  0.  0.  0.
296  2.95  0.  0.  0.
297  2.96  0.  0.  0.
298  2.97  0.  0.  0.
299  2.98  0.  0.  0.
300  2.99  0.  0.  0.
301  3.00  0.  0.  0.
302  3.01  0.  0.  0.
303  3.02  0.  0.  0.
304  3.03  0.  0.  0.
305  3.04  0.  0.  0.
306  3.05  0.  0.  0.
307  3.06  0.  0.  0.
308  3.07  0.  0.  0.
309  3.08  0.  0.  0.
310  3.09  0.  0.  0.
311  3.10  0.  0.  0.
312  3.11  0.  0.  0.
313  3.12  0.  0.  0.
314  3.13  0.  0.  0.
315  3.14  0.  0.  0.
316  3.15  0.  0.  0.
317  3.16  0.  0.  0.
318  3.17  0.  0.  0.
319  3.18  0.  0.  0.
320  3.19  0.  0.  0.
321  3.20  0.  0.  0.
322  3.21  0.  0.  0.
323  3.22  0.  0.  0.
324  3.23  0.  0.  0.
325  3.24  0.  0.  0.
326  3.25  0.  0.  0.
327  3.26  0.  0.  0.
328  3.27  0.  0.  0.
329  3.28  0.  0.  0.
330  3.29  0.  0.  0.
331  3.30  0.  0.  0.
332  3.31  0.  0.  0.
333  3.32  0.  0.  0.
334  3.33  0.  0.  0.
335  3.34  0.  0.  0.
336  3.35  0.  0.  0.
337  3.36  0.  0.  0.
338  3.37  0.  0.  0.
339  3.38  0.  0.  0.
340  3.39  0.  0.  0.
341  3.40  0.  0.  0.
342  3.41  0.  0.  0.
343  3.42  0.  0.  0.
344  3.43  0.  0.  0.
345  3.44  0.  0.  0.
346  3.45  0.  0.  0.
347  3.46  0.  0.  0.
348  3.47  0.  0.  0.
349  3.48  0.  0.  0.
350  3.49  0.  0.  0.
351  3.50  0.  0.  0.
352  3.51  0.  0.  0.
353  3.52  0.  0.  0.
354  3.53  0.  0.  0.
355  3.54  0.  0.  0.
356  3.55  0.  0.  0.
357  3.56  0.  0.  0.
358  3.57  0.  0.  0.
359  3.58  0.  0.  0.
360  3.59  0.  0.  0.
361  3.60  0.  0.  0.
362  3.61  0.  0.  0.
363  3.62  0.  0.  0.
364  3.63  0.  0.  0.
365  3.64  0.  0.  0.
366  3.65  0.  0.  0.
367  3.66  0.  0.  0.
368  3.67  0.  0.  0.
369  3.68  0.  0.  0.
370  3.69  0.  0.  0.
371  3.70  0.  0.  0.
372  3.71  0.  0.  0.
373  3.72  0.  0.  0.
374  3.73  0.  0.  0.
375  3.74  0.  0.  0.
376  3.75  0.  0.  0.
377  3.76  0.  0.  0.
378  3.77  0.  0.  0.
379  3.78  0.  0.  0.
380  3.79  0.  0.  0.
381  3.80  0.  0.  0.
382  3.81  0.  0.  0.
383  3.82  0.  0.  0.
384  3.83  0.  0.  0.
385  3.84  0.  0.  0.
386  3.85  0.  0.  0.
387  3.86  0.  0.  0.
388  3.87  0.  0.  0.
389  3.88  0.  0.  0.
390  3.89  0.  0.  0.
391  3.90  0.  0.  0.
392  3.91  0.  0.  0.
393  3.92  0.  0.  0.
394  3.93  0.  0.  0.
395  3.94  0.  0.  0.
396  3.95  0.  0.  0.
397  3.96  0.  0.  0.
398  3.97  0.  0.  0.
399  3.98  0.  0.  0.
400  3.99  0.  0.  0.
401  4.00  0.  0.  0.
402  4.01  0.  0.  0.
403  4.02  0.  0.  0.
404  4.03  0.  0.  0.
405  4.04  0.  0.  0.
406  4.05  0.  0.  0.
407  4.06  0.  0.  0.
408  4.07  0.  0.  0.
409  4.08  0.  0.  0.
410  4.09  0.  0.  0.
411  4.10  0.  0.  0.
412  4.11  0.  0.  0.
413  4.12  0.  0.  0.
414  4.13  0.  0.  0.
415  4.14  0.  0.  0.
416  4.15  0.  0.  0.
417  4.16  0.  0.  0.
418  4.17  0.  0.  0.
419  4.18  0.  0.  0.
420  4.19  0.  0.  0.
421  4.20  0.  0.  0.
422  4.21  0.  0.  0.
423  4.22  0.  0.  0.
424  4.23  0.  0.  0.
425  4.24  0.  0.  0.
426  4.25  0.  0.  0.
427  4.26  0.  0.  0.
428  4.27  0.  0.  0.
429  4.28  0.  0.  0.
430  4.29  0.  0.  0.
431  4.30  0.  0.  0.
432  4.31  0.  0.  0.
433  4.32  0.  0.  0.
434  4.33  0.  0.  0.
435  4.34  0.  0.  0.
436  4.35  0.  0.  0.
437  4.36  0.  0.  0.
438  4.37  0.  0.  0.
439  4.38  0.  0.  0.
440  4.39  0.  0.  0.
441  4.40  0.  0.  0.
442  4.41  0.  0.  0.
443  4.42  0.  0.  0.
444  4.43  0.  0.  0.
445  4.44  0.  0.  0.
446  4.45  0.  0.  0.
447  4.46  0.  0.  0.
448  4.47  0.  0.  0.
449  4.48  0.  0.  0.
450  4.49  0.  0.  0.
451  4.50  0.  0.  0.
452  4.51  0.  0.  0.
453  4.52  0.  0.  0.
454  4.53  0.  0.  0.
455  4.54  0.  0.  0.
456  4.55  0.  0.  0.
457  4.56  0.  0.  0.
458  4.57  0.  0.  0.
459  4.58  0.  0.  0.
460  4.59  0.  0.  0.
461  4.60  0.  0.  0.
462  4.61  0.  0.  0.
463  4.62  0.  0.  0.
464  4.63  0.  0.  0.
465  4.64  0.  0.  0.
466  4.65  0.  0.  0.
467  4.66  0.  0.  0.
468  4.67  0.  0.  0.
469  4.68  0.  0.  0.
470  4.69  0.  0.  0.
471  4.70  0.  0.  0.
472  4.71  0.  0.  0.
473  4.72  0.  0.  0.
474  4.73  0.  0.  0.
475  4.74  0.  0.  0.
476  4.75  0.  0.  0.
477  4.76  0.  0.  0.
478  4.77  0.  0.  0.
479  4.78  0.  0.  0.
480  4.79  0.  0.  0.
481  4.80  0.  0.  0.
482  4.81  0.  0.  0.
483  4.82  0.  0.  0.
484  4.83  0.  0.  0.
485  4.84  0.  0.  0.
486  4.85  0.  0.  0.
487  4.86  0.  0.  0.
488  4.87  0.  0.  0.
489  4.88  0.  0.  0.
490  4.89  0.  0.  0.
491  4.90  0.  0.  0.
492  4.91  0.  0.  0.
493  4.92  0.  0.  0.
494  4.93  0.  0.  0.
495  4.94  0.  0.  0.
496  4.95  0.  0.  0.
497  4.96  0.  0.  0.
498  4.97  0.  0.  0.
499  4.98  0.  0.  0.
500  4.99  0.  0.  0.
501  5.00  0.  0.  0.
502  5.01  0.  0.  0.
503  5.02  0.  0.  0.
504  5.03  0.  0.  0.
505  5.04  0.  0.  0.
506  5.05  0.  0.  0.
507  5.06  0.  0.  0.
508  5.07  0.  0.  0.
509  5.08  0.  0.  0.
510  5.09  0.  0.  0.
511  5.10  0.  0.  0.
512  5.11  0.  0.  0.
513  5.12  0.  0.  0.
514  5.13  0.  0.  0.
515  5.14  0.  0.  0.
516  5.15  0.  0.  0.
517  5.16  0.  0.  0.
518  5.17  0.  0.  0.
519  5.18  0.  0.  0.
520  5.19  0.  0.  0.
521  5.20  0.  0.  0.
522  5.21  0.  0.  0.
523  5.22  0.  0.  0.
524  5.23  0.  0.  0.
525  5.24  0.  0.  0.
526  5.25  0.  0.  0.
527  5.26  0.  0.  0.
528  5.27  0.  0.  0.
529  5.28  0.  0.  0.
530  5.29  0.  0.  0.
531  5.30  0.  0.  0.
532  5.31  0.  0.  0.
533  5.32  0.  0.  0.
534  5.33  0.  0.  0.
535  5.34  0.  0.  0.
536  5.35  0.  0.  0.
537  5.36  0.  0.  0.
538  5.37  0.  0.  0.
539  5.38  0.  0.  0.
540  5.39  0.  0.  0.
541  5.40  0.  0.  0.
542  5.41  0.  0.  0.
543  5.42  0.  0.  0.
544  5.43  0.  0.  0.
545  5.44  0.  0.  0.
546  5.45  0.  0.  0.
547  5.46  0.  0.  0.
548  5.47  0.  0.  0.
549  5.48  0.  0.  0.
550  5.49  0.  0.  0.
551  5.50  0.  0.  0.
552  5.51  0.  0.  0.
553  5.52  0.  0.  0.
554  5.53  0.  0.  0.
555  5.54  0.  0.  0.
556  5.55  0.  0.  0.
557  5.56  0.  0.  0.
558  5.57  0.  0.  0.
559  5.58  0.  0.  0.
560  5.59  0.  0.  0.
561  5.60  0.  0.  0.
562  5.61  0.  0.  0.
563  5.62  0.  0.  0.
564  5.63  0.  0.  0.
565  5.64  0.  0.  0.
566  5.65  0.  0.  0.
567  5.66  0.  0.  0.
568  5.67  0.  0.  0.
569  5.68  0.  0.  0.
570  5.69  0.  0.  0.
571  5.70  0.  0.  0.
572  5.71  0.  0.  0.
573  5.72  0.  0.  0.
574  5.73  0.  0.  0.
575  5.74  0.  0.  0.
576  5.75  0.  0.  0.
577  5.76  0.  0.  0.
578  5.77  0.  0.  0.
579  5.78  0.  0.  0.
580  5.79  0.  0.  0.
581  5.80  0.  0.  0.
582  5.81  0.  0.  0.
583  5.82  0.  0.  0.
584  5.83  0.  0.  0.
585  5.84  0.  0.  0.
586  5.85  0.  0.  0.
587  5.86  0.  0.  0.
588  5.87  0.  0.  0.
589  5.88  0.  0.  0.
590  5.89  0.  0.  0.
591  5.90  0.  0.  0.
592  5.91  0.  0.  0.
593  5.92  0.  0.  0.
594  5.93  0.  0.  0.
595  5.94  0.  0.  0.
596  5.95  0.  0.  0.
597  5.96  0.  0.  0.
598  5.97  0.  0.  0.
599  5.98  0.  0.  0.
600  5.99  0.  0.  0.
1                         1.4633270521892E+01  1.6749839474090E+00 -1.2468488075981E-01
1  0.0000000000000E+00 -1.4216294308422E-08  3.4765098268913E-08 -3.3123314771566E-08
2  1.0000000000000E-02  3.9204756516537E-03 -3.8503417405399E-04  9.0665155282049E-04
3  2.0000000000000E-02  1.5655638315489E-02 -1.5419885020612E-03  3.6297762430464E-03
4  3.0000000000000E-02  3.5126632495010E-02 -3.4758816587119E-03  8.1783637226838E-03
5  4.0000000000000E-02  6.2201833928547E-02 -6.1933130169715E-03  1.4565684936797E-02
6  5.0000000000000E-02  9.6696587603499E-02 -9.6998983530840E-03  2.2806804080434E-02
7  6.0000000000000E-02  1.3837291081680E-01 -1.3996843392928E-02  3.2915251679819E-02
8  7.0000000000000E-02  1.8693922769719E-01 -1.9076811620693E-02  4.4899008250530E-02
9  8.0000000000000E-02  2.4205021582105E-01 -2.4919277535941E-02  5.8755981108739E-02
10  9.0000000000000E-02  3.0330685642912E-01 -3.1485584330948E-02  7.4469183305930E-02
11  1.0000000000000E-01  3.7025678678827E-01 -3.8713944713539E-02  9.2001842311401E-02
12  1.1000000000000E-01  4.4239505607745E-01 -4.6514634542137E-02  1.1129267623648E-01
13  1.2000000000000E-01  5.1916538459437E-01 -5.4765630590914E-02  1.3225157662753E-01
14  1.3000000000000E-01  5.9996202001958E-01 -6.3308935962589E-02  1.5475592900929E-01
15  1.4000000000000E-01  6.8413227403736E-01 -7.1947819581315E-02  1.7864778560857E-01
16  1.5000000000000E-01  7.7097980805576E-01 -8.0445170313297E-02  2.0373207951798E-01
17  1.6000000000000E-01  8.5976871849903E-01 -8.8523132374758E-02  2.2977603675226E-01
18  1.7000000000000E-01  9.4972845071026E-01 -9.5864147872728E-02  2.5650990326445E-01
19  1.8000000000000E-01  1.0400595465668E+00 -1.0211348590977E-01  2.8362905932176E-01
20  1.9000000000000E-01  1.1299402052432E+00 -1.0688328720354E-01  3.1079754518724E-01
21  2.0000000000000E-01  1.2185336099952E+00 -1.0975810031289E-01  3.3765297145535E-01
22  2.1000000000000E-01  1.3049959472763E+00 -1.1030183211667E-01  3.6381273638861E-01
23  2.2000000000000E-01  1.3884850188374E+00 -1.0806598298819E-01  3.8888142296966E-01
24  2.3000000000000E-01  1.4681693235979E+00 -1.0259898796166E-01  4.1245920187362E-01
25  2.4000000000000E-01  1.5432374648646E+00 -9.3456440827197E-02  4.3415102484517E-01
26  2.5000000000000E-01  1.6129077206943E+00 -8.0211940108750E-02  4.5357635756404E-01
27  2.6000000000000E-01  1.6764376015200E+00 -6.2468265673178E-02  4.7037917333339E-01
28  2.7000000000000E-01  1.7331332101664E+00 -3.9868573439384E-02  4.8423790992384E-01
29  2.8000000000000E-01  1.7823582154558E+00 -1.2107284172799E-02  4.9487508245970E-01
30  2.9000000000000E-01  1.8235422520347E+00  2.1059658788663E-02  5.0206624584594E-01
31  3.0000000000000E-01  1.8561885658953E+00  5.9805478615905E-02  5.0564801106714E-01
32  3.1000000000000E-01  1.8798807372516E+00  1.0422449678813E-01  5.0552484056756E-01
33  3.2000000000000E-01  1.8942883296841E+00  1.5432557377381E-01  5.0167437832210E-01
34  3.3000000000000E-01  1.8991713363548E+00  2.1002728591906E-01  4.9415110928498E-01
35  3.4000000000000E-01  1.8943833200358E+00  2.7115501908933E-01  4.8308818949873E-01
36  3.5000000000000E-01  1.8798731729448E+00  3.3744010631226E-01  4.6869734083707E-01
37  3.6000000000000E-01  1.8556854541085E+00  4.0852107851736E-01  4.5126676149054E-01
38  3.7000000000000E-01  1.8219592952310E+00  4.8394703630545E-01  4.3115706305620E-01
39  3.8000000000000E-01  1.7789258998399E+00  5.6318308847745E-01  4.0879530552381E-01
40  3.9000000000000E-01  1.7269046937815E+00  6.4561774183607E-01  3.8466726056956E-01
41  4.0000000000000E-01  1.6662982169287E+00  7.3057206856164E-01  3.5930808939897E-01
42  4.1000000000000E-01  1.5975858752549E+00  8.1731042420074E-01  3.3329167202919E-01
43  4.2000000000000E-01  1.5213166983171E+00  9.0505244278834E-01  3.0721886862473E-01
44  4.3000000000000E-01  1.4381012688577E+00  9.9298599744623E-01  2.8170502875962E-01
45  4.4000000000000E-01  1.3486030080194E+00  1.0802807862928E+00  2.5736709000182E-01
46  4.5000000000000E-01  1.2535290110283E+00  1.1661021856809E+00  2.3481062203926E-01
47  4.6000000000000E-01  1.1536206338066E+00  1.2496250063240E+00  2.1461717607412E-01
48  4.7000000000000E-01  1.0496440306574E+00  1.3300467930704E+00  1.9733229116177E-01
49  4.8000000000000E-01  9.4238083695174E-01  1.4066003258418E+00  1.8345448970693E-01
50  4.9000000000000E-01  8.3261917888491E-01  1.4785650070849E+00  1.7342556398220E-01
51  5.0000000000000E-01  7.2114517525604E-01  1.5452768591106E+00  1.6762241520987E-01
52  5.1000000000000E-01  6.0873507447126E-01  1.6061369017014E+00  1.6635065770229E-01
53  5.2000000000000E-01  4.9614814432497E-01  1.6606177347994E+00  1.6984014435181E-01
54  5.3000000000000E-01  3.8412040346346E-01  1.7082682111381E+00  1.7824250823019E-01
55  5.4000000000000E-01  2.7335925277684E-01  1.7487161473156E+00  1.9163075022706E-01
56  5.5000000000000E-01  1.6453903335946E-01  1.7816690868727E+00  2.1000083669613E-01
57  5.6000000000000E-01  5.8297506230199E-02  1.8069131931741E+00  2.3327520621918E-01
58  5.7000000000000E-01 -4.4766781193102E-02  1.8243104110853E+00  2.6130802305999E-01
59  5.8000000000000E-01 -1.4409630475663E-01  1.8337940924215E+00  2.9389195879601E-01
60  5.9000000000000E-01 -2.3917563685834E-01  1.8353633289364E+00  3.3076623495623E-01
61  6.0000000000000E-01 -3.2953189128701E-01  1.8290762764563E+00  3.7162561999396E-01
62  6.1000000000000E-01 -4.1473466309917E-01  1.8150427831764E+00  4.1613004502736E-01
63  6.2000000000000E-01 -4.9439559715254E-01  1.7934166530143E+00  4.6391448557867E-01
64  6.3000000000000E-01 -5.6816772326045E-01  1.7643878805299E+00  5.1459875173474E-01
65  6.4000000000000E-01 -6.3574469434416E-01  1.7281751869792E+00  5.6779683701449E-01
66  6.5000000000000E-01 -6.9686005650570E-01  1.6850191677187E+00  6.2312549660237E-01
67  6.6000000000000E-01 -7.5128666690678E-01  1.6351763299964E+00  6.8021175789133E-01
68  6.7000000000000E-01 -7.9883635721373E-01  1.5789142581839E+00  7.3869910945046E-01
69  6.8000000000000E-01 -8.3935991783935E-01  1.5165080921278E+00  7.9825216717600E-01
70  6.9000000000000E-01 -8.7274745214306E-01  1.4482384453085E+00  8.5855967672616E-01
71  7.0000000000000E-01 -8.9892912114122E-01  1.3743908249598E+00  9.1933577732425E-01
72  7.1000000000000E-01 -9.1787626924748E-01  1.2952565485257E+00  9.8031952134111E-01
73  7.2000000000000E-01 -9.2960289128979E-01  1.2111350822706E+00  1.0412727143082E+00
74  7.3000000000000E-01 -9.3416737175697E-01  1.1223376610455E+00  1.1019762086454E+00
75  7.4000000000000E-01 -9.3167440010973E-01  1.0291919856411E+00  1.1622248489384E+00
76  7.5000000000000E-01 -9.2227694219793E-01  9.3204773824577E-01  1.2218213246760E+00
77  7.6000000000000E-01 -9.0617812840117E-01  8.3128260946126E-01  1.2805692357732E+00
78  7.7000000000000E-01 -8.8363290495709E-01  7.2730849405535E-01  1.3382657150401E+00
79  7.8000000000000E-01 -8.5494928679518E-01  6.2057748871553E-01  1.3946939784367E+00
80  7.9000000000000E-01 -8.2048904857611E-01  5.1158731469739E-01  1.4496161872928E+00
81  8.0000000000000E-01 -7.8066769584619E-01  4.0088579213099E-01  1.5027670059680E+00
82  8.1000000000000E-01 -7.3595357030705E-01  2.8907401108716E-01  1.5538482234128E+00
83  8.2000000000000E-01 -6.8686596197560E-01  1.7680787701654E-01  1.6025247780453E+00
84  8.3000000000000E-01 -6.3397212601963E-01  6.4797754056106E-02  1.6484224830245E+00
85  8.4000000000000E-01 -5.7788313261627E-01 -4.6194012338990E-02  1.6911276946143E+00
86  8.5000000000000E-01 -5.1924851338608E-01 -1.5535784368385E-01  1.7301891015770E+00
87  8.6000000000000E-01 -4.5874970670513E-01 -2.6184402143680E-01  1.7651217404701E+00
88  8.7000000000000E-01 -3.9709234523324E-01 -3.6477211623734E-01  1.7954132627573E+00
89  8.8000000000000E-01 -3.3499747094027E-01 -4.6324265984396E-01  1.8205323974142E+00
90  8.9000000000000E-01 -2.7319180431629E-01 -5.5635088100003E-01  1.8399394700275E+00
91  9.0000000000000E-01 -2.1239723384061E-01 -6.4320224416013E-01  1.8530987591262E+00
92  9.1000000000000E-01 -1.5331972771388E-01 -7.2292945355955E-01  1.8594923954704E+00
93  9.2000000000000E-01 -9.6637900958718E-02 -7.9471051730342E-01  1.8586354429891E+00
94  9.3000000000000E-01 -4.2991496022814E-02 -8.5778740956251E-01  1.8500917434645E+00
95  9.4000000000000E-01  7.0299470878100E-03 -9.1148482580936E-01  1.8334900630815E+00
96  9.5000000000000E-01  5.2897945224815E-02 -9.5522849816212E-01  1.8085400493775E+00
97  9.6000000000000E-01  9.4155163851024E-02 -9.8856252665220E-01  1.7750474932355E+00
98  9.7000000000000E-01  1.3042446657672E-01 -1.0111651884300E+00  1.7329283931809E+00
99  9.8000000000000E-01  1.6141665956080E-01 -1.0228627107871E+00  1.6822213385977E+00