Fr    ONCVPSP-4.0.1  r_core=   1.50052   1.50052   1.60257   1.86109
87.0000     27.0000      220327    zatom,zion,pspd
8      11   3     4   600     0    pspcod,pspxc,lmax,lloc,mmax,r2well
5.99000000  5.00000000  0.00000000    rchrg fchrg qchrg
3     2     2     1     0    nproj
1     1           extension_switch
0                         1.8422893244592E+01 -2.7882758975885E+00 -3.4436318626462E-01
1  0.0000000000000E+00 -1.9108916671229E-09 -8.4556593671348E-10  3.7490130999629E-08
2  1.0000000000000E-02  1.3633702457067E-01  8.7848566782353E-03 -1.5392898596955E-01
3  2.0000000000000E-02  2.7196763194606E-01  1.7614436341353E-02 -3.0577106545209E-01
4  3.0000000000000E-02  4.0619031143359E-01  2.6533664060487E-02 -4.5346955782533E-01
5  4.0000000000000E-02  5.3831332186940E-01  3.5587859446711E-02 -5.9502772682942E-01
6  5.0000000000000E-02  6.6765946818694E-01  4.4822910063490E-02 -7.2853749423871E-01
7  6.0000000000000E-02  7.9357074953185E-01  5.4285416831798E-02 -8.5220667084478E-01
8  7.0000000000000E-02  9.1541283838505E-01  6.4022803113250E-02 -9.6438425574611E-01
9  8.0000000000000E-02  1.0325793520672E+00  7.4083380002151E-02 -1.0635833924300E+00
10  9.0000000000000E-02  1.1444958803321E+00  8.4516361377760E-02 -1.1485016154248E+00
11  1.0000000000000E-01  1.2506237354835E+00  9.5371823440806E-02 -1.2180380734331E+00
12  1.1000000000000E-01  1.3504633945236E+00  1.0670060475634E-01 -1.2713074726645E+00
13  1.2000000000000E-01  1.4435576062271E+00  1.1855414422020E-01 -1.3076505463606E+00
14  1.3000000000000E-01  1.5294941396731E+00  1.3098425582621E-01 -1.3266409218633E+00
15  1.4000000000000E-01  1.6079081546173E+00  1.4404284060501E-01 -1.3280883236689E+00
16  1.5000000000000E-01  1.6784841780891E+00  1.5778153759813E-01 -1.3120381182826E+00
17  1.6000000000000E-01  1.7409576756990E+00  1.7225131719100E-01 -1.2787672729287E+00
18  1.7000000000000E-01  1.7951162102922E+00  1.8750202152345E-01 -1.2287768639354E+00
19  1.8000000000000E-01  1.8408001847168E+00  2.0358185799605E-01 -1.1627813305608E+00
20  1.9000000000000E-01  1.8779031695585E+00  2.2053685306626E-01 -1.0816947249772E+00
21  2.0000000000000E-01  1.9063718206526E+00  2.3841027455667E-01 -9.8661425800630E-01
22  2.1000000000000E-01  1.9262053949953E+00  2.5724203155514E-01 -8.7880148207541E-01
23  2.2000000000000E-01  1.9374548772785E+00  2.7706806165786E-01 -7.5966148697806E-01
24  2.3000000000000E-01  1.9402217326420E+00  2.9791971577582E-01 -6.3072050981759E-01
25  2.4000000000000E-01  1.9346563043240E+00  3.1982315098768E-01 -4.9360237762339E-01
26  2.5000000000000E-01  1.9209558776874E+00  3.4279874196992E-01 -3.5000420936453E-01
27  2.6000000000000E-01  1.8993624345621E+00  3.6686052137282E-01 -2.0167180348650E-01
28  2.7000000000000E-01  1.8701601239727E+00  3.9201565914258E-01 -5.0375127948463E-02
29  2.8000000000000E-01  1.8336724770924E+00  4.1826399022559E-01  1.0211568763422E-01
30  2.9000000000000E-01  1.7902593956863E+00  4.4559759934616E-01  2.5405348302587E-01
31  3.0000000000000E-01  1.7403139443634E+00  4.7400047064172E-01  4.0373597855613E-01
32  3.1000000000000E-01  1.6842589776710E+00  5.0344820889093E-01  5.4952616102661E-01
33  3.2000000000000E-01  1.6225436334321E+00  5.3390783790528E-01  6.8987088133599E-01
34  3.3000000000000E-01  1.5556397237733E+00  5.6533768039996E-01  8.2331744704304E-01
35  3.4000000000000E-01  1.4840380550241E+00  5.9768732234319E-01  9.4852804184903E-01
36  3.5000000000000E-01  1.4082447071239E+00  6.3089766343366E-01  1.0642918541595E+00
37  3.6000000000000E-01  1.3287773023604E+00  6.6490105400190E-01  1.1695348472186E+00
38  3.7000000000000E-01  1.2461612922225E+00  6.9962151730291E-01  1.2633271526425E+00
39  3.8000000000000E-01  1.1609262898986E+00  7.3497505488954E-01  1.3448881164058E+00
40  3.9000000000000E-01  1.0736024745262E+00  7.7087003155575E-01  1.4135890703906E+00
41  4.0000000000000E-01  9.8471709171694E-01  8.0720763523822E-01  1.4689539426031E+00
42  4.1000000000000E-01  8.9479107318813E-01  8.4388240628363E-01  1.5106578542531E+00
43  4.2000000000000E-01  8.0433579653329E-01  8.8078282964391E-01  1.5385238814679E+00
44  4.3000000000000E-01  7.1385000430636E-01  9.1779198286590E-01  1.5525181829575E+00
45  4.4000000000000E-01  6.2381689968510E-01  9.5478823220390E-01  1.5527437121224E+00
46  4.5000000000000E-01  5.3470143404901E-01  9.9164596880799E-01  1.5394327428076E+00
47  4.6000000000000E-01  4.4694779987166E-01  1.0282363767295E+00  1.5129384420973E+00
48  4.7000000000000E-01  3.6097714040388E-01  1.0644282244334E+00  1.4737257214831E+00
49  4.8000000000000E-01  2.7718548572591E-01  1.1000886716087E+00  1.4223615897325E+00
50  4.9000000000000E-01  1.9594192288550E-01  1.1350840833139E+00  1.3595052173712E+00
51  5.0000000000000E-01  1.1758700602358E-01  1.1692808438650E+00  1.2858979044579E+00
52  5.1000000000000E-01  4.2431410624729E-02  1.2025461633623E+00  1.2023531211156E+00
53  5.2000000000000E-01 -2.9245165677789E-02  1.2347488703296E+00  1.1097467648161E+00
54  5.3000000000000E-01 -9.7194854962687E-02  1.2657601845931E+00  1.0090077507095E+00
55  5.4000000000000E-01 -1.6120222435728E-01  1.2954544652292E+00  9.0110902221590E-01
56  5.5000000000000E-01 -2.2108463719257E-01  1.3237099291476E+00  7.8705903967250E-01
57  5.6000000000000E-01 -2.7669237379323E-01  1.3504093366137E+00  6.6789377597463E-01
58  5.7000000000000E-01 -3.2790851713737E-01  1.3754406407448E+00  5.4466922077769E-01
59  5.8000000000000E-01 -3.7464860998536E-01  1.3986975987065E+00  4.1845436982969E-01
60  5.9000000000000E-01 -4.1686009138756E-01  1.4200803429801E+00  2.9032465404052E-01
61  6.0000000000000E-01 -4.5452152174119E-01  1.4394959116452E+00  1.6135574478065E-01
62  6.1000000000000E-01 -4.8764160677256E-01  1.4568587371176E+00  3.2617657979970E-02
63  6.2000000000000E-01 -5.1625803197587E-01  1.4720910931848E+00 -9.4830929558392E-02
64  6.3000000000000E-01 -5.4043612013671E-01  1.4851235004882E+00 -2.1994824253497E-01
65  6.4000000000000E-01 -5.6026732560723E-01  1.4958950908086E+00 -3.4171493836005E-01
66  6.5000000000000E-01 -5.7586757997282E-01  1.5043539306122E+00 -4.5913969167437E-01
67  6.6000000000000E-01 -5.8737550465120E-01  1.5104573043252E+00 -5.7126490628734E-01
68  6.7000000000000E-01 -5.9495050678557E-01  1.5141719577226E+00 -6.7717261390244E-01
69  6.8000000000000E-01 -5.9877077552520E-01  1.5154743016512E+00 -7.7599060045556E-01
70  6.9000000000000E-01 -5.9903119641852E-01  1.5143505760782E+00 -8.6689877912701E-01
71  7.0000000000000E-01 -5.9594120216423E-01  1.5107969741757E+00 -9.4913580489742E-01
72  7.1000000000000E-01 -5.8972257836481E-01  1.5048197258298E+00 -1.0220058996740E+00
73  7.2000000000000E-01 -5.8060724319154E-01  1.4964351396304E+00 -1.0848858304360E+00
74  7.3000000000000E-01 -5.6883501998992E-01  1.4856696020662E+00 -1.1372319564584E+00
75  7.4000000000000E-01 -5.5465142181901E-01  1.4725595323383E+00 -1.1785872364130E+00
76  7.5000000000000E-01 -5.3830546671866E-01  1.4571512909373E+00 -1.2085880628961E+00
77  7.6000000000000E-01 -5.2004754212631E-01  1.4395010399210E+00 -1.2269707716678E+00
78  7.7000000000000E-01 -5.0012733631547E-01  1.4196745527002E+00 -1.2335776563059E+00
79  7.8000000000000E-01 -4.7879185399683E-01  1.3977469710975E+00 -1.2283623069135E+00
80  7.9000000000000E-01 -4.5628353230996E-01  1.3738025075115E+00 -1.2113940844961E+00
81  8.0000000000000E-01 -4.3283847234031E-01  1.3479340901995E+00 -1.1828615412037E+00
82  8.1000000000000E-01 -4.0868480002829E-01  1.3202429499877E+00 -1.1430746010761E+00
83  8.2000000000000E-01 -3.8404116890284E-01  1.2908381471458E+00 -1.0924653264726E+00
84  8.3000000000000E-01 -3.5911541548225E-01  1.2598360377033E+00 -1.0315871119923E+00
85  8.4000000000000E-01 -3.3410337645568E-01  1.2273596791532E+00 -9.6111217022260E-01
86  8.5000000000000E-01 -3.0918787490737E-01  1.1935381762545E+00 -8.8182720179380E-01
87  8.6000000000000E-01 -2.8453788089247E-01  1.1585059685201E+00 -7.9462717545334E-01
88  8.7000000000000E-01 -2.6030784964395E-01  1.1224020619207E+00 -7.0050718152075E-01
89  8.8000000000000E-01 -2.3663723860770E-01  1.0853692083527E+00 -6.0055236341175E-01
90  8.9000000000000E-01 -2.1365020239871E-01  1.0475530374680E+00 -4.9592597593048E-01
91  9.0000000000000E-01 -1.9145546267157E-01  1.0091011465365E+00 -3.8785566476318E-01
92  9.1000000000000E-01 -1.7014634783649E-01  9.7016215507196E-01 -2.7761810789152E-01
93  9.2000000000000E-01 -1.4980099555642E-01  9.3088473198312E-01 -1.6652220538574E-01
94  9.3000000000000E-01 -1.3048270906404E-01  8.9141660397322E-01 -5.5891047980988E-02
95  9.4000000000000E-01 -1.1224045656778E-01  8.5190355479113E-01  5.2957064159301E-02
96  9.5000000000000E-01 -9.5109501403105E-02  8.1248842569827E-01  1.5872824418334E-01
97  9.6000000000000E-01 -7.9112149155675E-02  7.7331012813832E-01  2.6017294281665E-01
98  9.7000000000000E-01 -6.4258596759075E-02  7.3450268005910E-01  3.5610580865755E-01
99  9.8000000000000E-01 -5.0547867574945E-02  6.9619427761676E-01  4.4542510062542E-01
100  9.9000000000000E-01 -3.7968815712266E-02  6.5850641407650E-01  5.2713125809903E-01
101  1.0000000000000E+00 -2.6501182350572E-02  6.2155305759952E-01  6.0034423212558E-01
102  1.0100000000000E+00 -1.6116686606218E-02  5.8543989926425E-01  6.6431918772032E-01
103  1.0200000000000E+00 -6.7801335275477E-03  5.5026368210715E-01  7.1846020295388E-01
104  1.0300000000000E+00  1.5494778777820E-03  5.1611162118766E-01  7.6233161520804E-01
105  1.0400000000000E+00  8.9178630967378E-03  4.8306092368685E-01  7.9566669848833E-01
106  1.0500000000000E+00  1.5374392719013E-02  4.5117841685222E-01  8.1837339763405E-01
107  1.0600000000000E+00  2.0971079792010E-02  4.2052029021819E-01  8.3053689495544E-01
108  1.0700000000000E+00  2.5761627210268E-02  3.9113195698038E-01  8.3241884161936E-01
109  1.0800000000000E+00  2.9800546922893E-02  3.6304803770790E-01  8.2445314887763E-01
110  1.0900000000000E+00  3.3142361067000E-02  3.3629246777038E-01  8.0723830187940E-01
111  1.1000000000000E+00  3.5840893310150E-02  3.1087872795800E-01  7.8152623030862E-01
112  1.1100000000000E+00  3.7948656757331E-02  2.8681019583109E-01  7.4820784355625E-01
113  1.1200000000000E+00  3.9516342760810E-02  2.6408061336462E-01  7.0829541291956E-01
114  1.1300000000000E+00  4.0592412924134E-02  2.4267466451091E-01  6.6290205704776E-01
115  1.1400000000000E+00  4.1222794523933E-02  2.2256865440261E-01  6.1321865897474E-01
116  1.1500000000000E+00  4.1450677546805E-02  2.0373128011558E-01  5.6048861124498E-01
117  1.1600000000000E+00  4.1316409559938E-02  1.8612448121708E-01  5.0598084938365E-01
118  1.1700000000000E+00  4.0857482765109E-02  1.6970435679409E-01  4.5096169105351E-01
119  1.1800000000000E+00  4.0108605824619E-02  1.5442213429245E-01  3.9666604848993E-01
120  1.1900000000000E+00  3.9101851454732E-02  1.4022517434847E-01  3.4426862327727E-01
121  1.2000000000000E+00  3.7866869347768E-02  1.2705799485787E-01  2.9485572524593E-01
122  1.2100000000000E+00  3.6431152756302E-02  1.1486329683647E-01  2.4939837994978E-01
123  1.2200000000000E+00  3.4820346045835E-02  1.0358297417984E-01  2.0872740187718E-01
124  1.2300000000000E+00  3.3058579716662E-02  9.3159089236884E-02  1.7351111282815E-01
125  1.2400000000000E+00  3.1168818815311E-02  8.3534796170227E-02  1.4423637703858E-01
126  1.2500000000000E+00  2.9173210296401E-02  7.4655194381954E-02  1.2119360667751E-01
127  1.2600000000000E+00  2.7093414759060E-02  6.6468094819713E-02  1.0446636415009E-01
128  1.2700000000000E+00  2.4950908053290E-02  5.8924682731570E-02  9.3926151766099E-02
129  1.2800000000000E+00  2.2767238520909E-02  5.1980061389034E-02  8.9232935635545E-02
130  1.2900000000000E+00  2.0564226083051E-02  4.5593662413013E-02  8.9841900618731E-02
131  1.3000000000000E+00  1.8364089989440E-02  3.9729509592417E-02  9.5016877822843E-02
132  1.3100000000000E+00  1.6189492785258E-02  3.4356324451527E-02  1.0385082674882E-01
133  1.3200000000000E+00  1.4063488895043E-02  2.9447463254626E-02  1.1529369272554E-01
134  1.3300000000000E+00  1.2009367143785E-02  2.4980676602518E-02  1.2818789806670E-01
135  1.3400000000000E+00  1.0050377512721E-02  2.0937684251937E-02  1.4131166353264E-01
136  1.3500000000000E+00  8.2093334175212E-03  1.7303559216257E-02  1.5343029764304E-01
137  1.3600000000000E+00  6.5080817822602E-03  1.4065916568324E-02  1.6335553590064E-01
138  1.3700000000000E+00  4.9668341320772E-03  1.1213903623363E-02  1.7001296172474E-01
139  1.3800000000000E+00  3.6033528188022E-03  8.7369893045810E-03  1.7251749723891E-01
140  1.3900000000000E+00  2.4319869943887E-03  6.6235504379450E-03  1.7025701528708E-01
141  1.4000000000000E+00  1.4625653396977E-03  4.8592767394923E-03  1.6298239034684E-01
142  1.4100000000000E+00  6.9904150065090E-04  3.4252411748308E-03  1.5091250123423E-01
143  1.4200000000000E+00  1.3860795897662E-04  2.2973228994778E-03  1.3471398551253E-01
144  1.4300000000000E+00 -2.3248830584726E-04  1.4434063446583E-03  1.1539014913004E-01
145  1.4400000000000E+00 -4.4925756010501E-04  8.1217260987788E-04  9.4515323023661E-02
146  1.4500000000000E+00 -5.2837590348347E-04  3.7767327528257E-04  7.3017134163572E-02
147  1.4600000000000E+00 -4.9185732878417E-04  1.1351036452331E-04  5.1897743575132E-02
148  1.4700000000000E+00 -3.7263536333769E-04 -1.3596293871324E-05  3.2415277425620E-02
149  1.4800000000000E+00 -2.1411368980355E-04 -4.3434139953890E-05  1.6081916328928E-02
150  1.4900000000000E+00 -6.8436580525851E-05 -2.1427189291646E-05  4.5832264161769E-03
151  1.5000000000000E+00 -1.0907508272786E-06 -4.1960308966783E-07  6.5956931556784E-05
152  1.5100000000000E+00 -1.8518492804478E-07 -6.9561385254560E-08  1.1569996177314E-05
153  1.5200000000000E+00  7.2761993448742E-08  2.4164085908690E-08 -4.7842955366649E-06
154  1.53 -0. -0.  0.
155  1.54  0.  0.  0.
156  1.55  0.  0.  0.
157  1.56  0.  0.  0.
158  1.57  0.  0.  0.
159  1.58  0.  0.  0.
160  1.59  0.  0.  0.
161  1.60  0.  0.  0.
162  1.61  0.  0.  0.
163  1.62  0.  0.  0.
164  1.63  0.  0.  0.
165  1.64  0.  0.  0.
166  1.65  0.  0.  0.
167  1.66  0.  0.  0.
168  1.67  0.  0.  0.
169  1.68  0.  0.  0.
170  1.69  0.  0.  0.
171  1.70  0.  0.  0.
172  1.71  0.  0.  0.
173  1.72  0.  0.  0.
174  1.73  0.  0.  0.
175  1.74  0.  0.  0.
176  1.75  0.  0.  0.
177  1.76  0.  0.  0.
178  1.77  0.  0.  0.
179  1.78  0.  0.  0.
180  1.79  0.  0.  0.
181  1.80  0.  0.  0.
182  1.81  0.  0.  0.
183  1.82  0.  0.  0.
184  1.83  0.  0.  0.
185  1.84  0.  0.  0.
186  1.85  0.  0.  0.
187  1.86  0.  0.  0.
188  1.87  0.  0.  0.
189  1.88  0.  0.  0.
190  1.89  0.  0.  0.
191  1.90  0.  0.  0.
192  1.91  0.  0.  0.
193  1.92  0.  0.  0.
194  1.93  0.  0.  0.
195  1.94  0.  0.  0.
196  1.95  0.  0.  0.
197  1.96  0.  0.  0.
198  1.97  0.  0.  0.
199  1.98  0.  0.  0.
200  1.99  0.  0.  0.
201  2.00  0.  0.  0.
202  2.01  0.  0.  0.
203  2.02  0.  0.  0.
204  2.03  0.  0.  0.
205  2.04  0.  0.  0.
206  2.05  0.  0.  0.
207  2.06  0.  0.  0.
208  2.07  0.  0.  0.
209  2.08  0.  0.  0.
210  2.09  0.  0.  0.
211  2.10  0.  0.  0.
212  2.11  0.  0.  0.
213  2.12  0.  0.  0.
214  2.13  0.  0.  0.
215  2.14  0.  0.  0.
216  2.15  0.  0.  0.
217  2.16  0.  0.  0.
218  2.17  0.  0.  0.
219  2.18  0.  0.  0.
220  2.19  0.  0.  0.
221  2.20  0.  0.  0.
222  2.21  0.  0.  0.
223  2.22  0.  0.  0.
224  2.23  0.  0.  0.
225  2.24  0.  0.  0.
226  2.25  0.  0.  0.
227  2.26  0.  0.  0.
228  2.27  0.  0.  0.
229  2.28  0.  0.  0.
230  2.29  0.  0.  0.
231  2.30  0.  0.  0.
232  2.31  0.  0.  0.
233  2.32  0.  0.  0.
234  2.33  0.  0.  0.
235  2.34  0.  0.  0.
236  2.35  0.  0.  0.
237  2.36  0.  0.  0.
238  2.37  0.  0.  0.
239  2.38  0.  0.  0.
240  2.39  0.  0.  0.
241  2.40  0.  0.  0.
242  2.41  0.  0.  0.
243  2.42  0.  0.  0.
244  2.43  0.  0.  0.
245  2.44  0.  0.  0.
246  2.45  0.  0.  0.
247  2.46  0.  0.  0.
248  2.47  0.  0.  0.
249  2.48  0.  0.  0.
250  2.49  0.  0.  0.
251  2.50  0.  0.  0.
252  2.51  0.  0.  0.
253  2.52  0.  0.  0.
254  2.53  0.  0.  0.
255  2.54  0.  0.  0.
256  2.55  0.  0.  0.
257  2.56  0.  0.  0.
258  2.57  0.  0.  0.
259  2.58  0.  0.  0.
260  2.59  0.  0.  0.
261  2.60  0.  0.  0.
262  2.61  0.  0.  0.
263  2.62  0.  0.  0.
264  2.63  0.  0.  0.
265  2.64  0.  0.  0.
266  2.65  0.  0.  0.
267  2.66  0.  0.  0.
268  2.67  0.  0.  0.
269  2.68  0.  0.  0.
270  2.69  0.  0.  0.
271  2.70  0.  0.  0.
272  2.71  0.  0.  0.
273  2.72  0.  0.  0.
274  2.73  0.  0.  0.
275  2.74  0.  0.  0.
276  2.75  0.  0.  0.
277  2.76  0.  0.  0.
278  2.77  0.  0.  0.
279  2.78  0.  0.  0.
280  2.79  0.  0.  0.
281  2.80  0.  0.  0.
282  2.81  0.  0.  0.
283  2.82  0.  0.  0.
284  2.83  0.  0.  0.
285  2.84  0.  0.  0.
286  2.85  0.  0.  0.
287  2.86  0.  0.  0.
288  2.87  0.  0.  0.
289  2.88  0.  0.  0.
290  2.89  0.  0.  0.
291  2.90  0.  0.  0.
292  2.91  0.  0.  0.
293  2.92  0.  0.  0.
294  2.93  0.  0.  0.
295  2.94  0.  0.  0.
296  2.95  0.  0.  0.
297  2.96  0.  0.  0.
298  2.97  0.  0.  0.
299  2.98  0.  0.  0.
300  2.99  0.  0.  0.
301  3.00  0.  0.  0.
302  3.01  0.  0.  0.
303  3.02  0.  0.  0.
304  3.03  0.  0.  0.
305  3.04  0.  0.  0.
306  3.05  0.  0.  0.
307  3.06  0.  0.  0.
308  3.07  0.  0.  0.
309  3.08  0.  0.  0.
310  3.09  0.  0.  0.
311  3.10  0.  0.  0.
312  3.11  0.  0.  0.
313  3.12  0.  0.  0.
314  3.13  0.  0.  0.
315  3.14  0.  0.  0.
316  3.15  0.  0.  0.
317  3.16  0.  0.  0.
318  3.17  0.  0.  0.
319  3.18  0.  0.  0.
320  3.19  0.  0.  0.
321  3.20  0.  0.  0.
322  3.21  0.  0.  0.
323  3.22  0.  0.  0.
324  3.23  0.  0.  0.
325  3.24  0.  0.  0.
326  3.25  0.  0.  0.
327  3.26  0.  0.  0.
328  3.27  0.  0.  0.
329  3.28  0.  0.  0.
330  3.29  0.  0.  0.
331  3.30  0.  0.  0.
332  3.31  0.  0.  0.
333  3.32  0.  0.  0.
334  3.33  0.  0.  0.
335  3.34  0.  0.  0.
336  3.35  0.  0.  0.
337  3.36  0.  0.  0.
338  3.37  0.  0.  0.
339  3.38  0.  0.  0.
340  3.39  0.  0.  0.
341  3.40  0.  0.  0.
342  3.41  0.  0.  0.
343  3.42  0.  0.  0.
344  3.43  0.  0.  0.
345  3.44  0.  0.  0.
346  3.45  0.  0.  0.
347  3.46  0.  0.  0.
348  3.47  0.  0.  0.
349  3.48  0.  0.  0.
350  3.49  0.  0.  0.
351  3.50  0.  0.  0.
352  3.51  0.  0.  0.
353  3.52  0.  0.  0.
354  3.53  0.  0.  0.
355  3.54  0.  0.  0.
356  3.55  0.  0.  0.
357  3.56  0.  0.  0.
358  3.57  0.  0.  0.
359  3.58  0.  0.  0.
360  3.59  0.  0.  0.
361  3.60  0.  0.  0.
362  3.61  0.  0.  0.
363  3.62  0.  0.  0.
364  3.63  0.  0.  0.
365  3.64  0.  0.  0.
366  3.65  0.  0.  0.
367  3.66  0.  0.  0.
368  3.67  0.  0.  0.
369  3.68  0.  0.  0.
370  3.69  0.  0.  0.
371  3.70  0.  0.  0.
372  3.71  0.  0.  0.
373  3.72  0.  0.  0.
374  3.73  0.  0.  0.
375  3.74  0.  0.  0.
376  3.75  0.  0.  0.
377  3.76  0.  0.  0.
378  3.77  0.  0.  0.
379  3.78  0.  0.  0.
380  3.79  0.  0.  0.
381  3.80  0.  0.  0.
382  3.81  0.  0.  0.
383  3.82  0.  0.  0.
384  3.83  0.  0.  0.
385  3.84  0.  0.  0.
386  3.85  0.  0.  0.
387  3.86  0.  0.  0.
388  3.87  0.  0.  0.
389  3.88  0.  0.  0.
390  3.89  0.  0.  0.
391  3.90  0.  0.  0.
392  3.91  0.  0.  0.
393  3.92  0.  0.  0.
394  3.93  0.  0.  0.
395  3.94  0.  0.  0.
396  3.95  0.  0.  0.
397  3.96  0.  0.  0.
398  3.97  0.  0.  0.
399  3.98  0.  0.  0.
400  3.99  0.  0.  0.
401  4.00  0.  0.  0.
402  4.01  0.  0.  0.
403  4.02  0.  0.  0.
404  4.03  0.  0.  0.
405  4.04  0.  0.  0.
406  4.05  0.  0.  0.
407  4.06  0.  0.  0.
408  4.07  0.  0.  0.
409  4.08  0.  0.  0.
410  4.09  0.  0.  0.
411  4.10  0.  0.  0.
412  4.11  0.  0.  0.
413  4.12  0.  0.  0.
414  4.13  0.  0.  0.
415  4.14  0.  0.  0.
416  4.15  0.  0.  0.
417  4.16  0.  0.  0.
418  4.17  0.  0.  0.
419  4.18  0.  0.  0.
420  4.19  0.  0.  0.
421  4.20  0.  0.  0.
422  4.21  0.  0.  0.
423  4.22  0.  0.  0.
424  4.23  0.  0.  0.
425  4.24  0.  0.  0.
426  4.25  0.  0.  0.
427  4.26  0.  0.  0.
428  4.27  0.  0.  0.
429  4.28  0.  0.  0.
430  4.29  0.  0.  0.
431  4.30  0.  0.  0.
432  4.31  0.  0.  0.
433  4.32  0.  0.  0.
434  4.33  0.  0.  0.
435  4.34  0.  0.  0.
436  4.35  0.  0.  0.
437  4.36  0.  0.  0.
438  4.37  0.  0.  0.
439  4.38  0.  0.  0.
440  4.39  0.  0.  0.
441  4.40  0.  0.  0.
442  4.41  0.  0.  0.
443  4.42  0.  0.  0.
444  4.43  0.  0.  0.
445  4.44  0.  0.  0.
446  4.45  0.  0.  0.
447  4.46  0.  0.  0.
448  4.47  0.  0.  0.
449  4.48  0.  0.  0.
450  4.49  0.  0.  0.
451  4.50  0.  0.  0.
452  4.51  0.  0.  0.
453  4.52  0.  0.  0.
454  4.53  0.  0.  0.
455  4.54  0.  0.  0.
456  4.55  0.  0.  0.
457  4.56  0.  0.  0.
458  4.57  0.  0.  0.
459  4.58  0.  0.  0.
460  4.59  0.  0.  0.
461  4.60  0.  0.  0.
462  4.61  0.  0.  0.
463  4.62  0.  0.  0.
464  4.63  0.  0.  0.
465  4.64  0.  0.  0.
466  4.65  0.  0.  0.
467  4.66  0.  0.  0.
468  4.67  0.  0.  0.
469  4.68  0.  0.  0.
470  4.69  0.  0.  0.
471  4.70  0.  0.  0.
472  4.71  0.  0.  0.
473  4.72  0.  0.  0.
474  4.73  0.  0.  0.
475  4.74  0.  0.  0.
476  4.75  0.  0.  0.
477  4.76  0.  0.  0.
478  4.77  0.  0.  0.
479  4.78  0.  0.  0.
480  4.79  0.  0.  0.
481  4.80  0.  0.  0.
482  4.81  0.  0.  0.
483  4.82  0.  0.  0.
484  4.83  0.  0.  0.
485  4.84  0.  0.  0.
486  4.85  0.  0.  0.
487  4.86  0.  0.  0.
488  4.87  0.  0.  0.
489  4.88  0.  0.  0.
490  4.89  0.  0.  0.
491  4.90  0.  0.  0.
492  4.91  0.  0.  0.
493  4.92  0.  0.  0.
494  4.93  0.  0.  0.
495  4.94  0.  0.  0.
496  4.95  0.  0.  0.
497  4.96  0.  0.  0.
498  4.97  0.  0.  0.
499  4.98  0.  0.  0.
500  4.99  0.  0.  0.
501  5.00  0.  0.  0.
502  5.01  0.  0.  0.
503  5.02  0.  0.  0.
504  5.03  0.  0.  0.
505  5.04  0.  0.  0.
506  5.05  0.  0.  0.
507  5.06  0.  0.  0.
508  5.07  0.  0.  0.
509  5.08  0.  0.  0.
510  5.09  0.  0.  0.
511  5.10  0.  0.  0.
512  5.11  0.  0.  0.
513  5.12  0.  0.  0.
514  5.13  0.  0.  0.
515  5.14  0.  0.  0.
516  5.15  0.  0.  0.
517  5.16  0.  0.  0.
518  5.17  0.  0.  0.
519  5.18  0.  0.  0.
520  5.19  0.  0.  0.
521  5.20  0.  0.  0.
522  5.21  0.  0.  0.
523  5.22  0.  0.  0.
524  5.23  0.  0.  0.
525  5.24  0.  0.  0.
526  5.25  0.  0.  0.
527  5.26  0.  0.  0.
528  5.27  0.  0.  0.
529  5.28  0.  0.  0.
530  5.29  0.  0.  0.
531  5.30  0.  0.  0.
532  5.31  0.  0.  0.
533  5.32  0.  0.  0.
534  5.33  0.  0.  0.
535  5.34  0.  0.  0.
536  5.35  0.  0.  0.
537  5.36  0.  0.  0.
538  5.37  0.  0.  0.
539  5.38  0.  0.  0.
540  5.39  0.  0.  0.
541  5.40  0.  0.  0.
542  5.41  0.  0.  0.
543  5.42  0.  0.  0.
544  5.43  0.  0.  0.
545  5.44  0.  0.  0.
546  5.45  0.  0.  0.
547  5.46  0.  0.  0.
548  5.47  0.  0.  0.
549  5.48  0.  0.  0.
550  5.49  0.  0.  0.
551  5.50  0.  0.  0.
552  5.51  0.  0.  0.
553  5.52  0.  0.  0.
554  5.53  0.  0.  0.
555  5.54  0.  0.  0.
556  5.55  0.  0.  0.
557  5.56  0.  0.  0.
558  5.57  0.  0.  0.
559  5.58  0.  0.  0.
560  5.59  0.  0.  0.
561  5.60  0.  0.  0.
562  5.61  0.  0.  0.
563  5.62  0.  0.  0.
564  5.63  0.  0.  0.
565  5.64  0.  0.  0.
566  5.65  0.  0.  0.
567  5.66  0.  0.  0.
568  5.67  0.  0.  0.
569  5.68  0.  0.  0.
570  5.69  0.  0.  0.
571  5.70  0.  0.  0.
572  5.71  0.  0.  0.
573  5.72  0.  0.  0.
574  5.73  0.  0.  0.
575  5.74  0.  0.  0.
576  5.75  0.  0.  0.
577  5.76  0.  0.  0.
578  5.77  0.  0.  0.
579  5.78  0.  0.  0.
580  5.79  0.  0.  0.
581  5.80  0.  0.  0.
582  5.81  0.  0.  0.
583  5.82  0.  0.  0.
584  5.83  0.  0.  0.
585  5.84  0.  0.  0.
586  5.85  0.  0.  0.
587  5.86  0.  0.  0.
588  5.87  0.  0.  0.
589  5.88  0.  0.  0.
590  5.89  0.  0.  0.
591  5.90  0.  0.  0.
592  5.91  0.  0.  0.
593  5.92  0.  0.  0.
594  5.93  0.  0.  0.
595  5.94  0.  0.  0.
596  5.95  0.  0.  0.
597  5.96  0.  0.  0.
598  5.97  0.  0.  0.
599  5.98  0.  0.  0.
600  5.99  0.  0.  0.
1                         3.4027472981605E+00 -2.4127731894051E+00
1  0.0000000000000E+00  2.8990883027546E-09 -4.4378914779153E-10
2  1.0000000000000E-02  3.3921429873547E-03  4.6388761097510E-04
3  2.0000000000000E-02  1.3542089723443E-02  1.8567570627290E-03
4  3.0000000000000E-02  3.0370596373562E-02  4.1822053730884E-03
5  4.0000000000000E-02  5.3746264505769E-02  7.4461516827827E-03
6  5.0000000000000E-02  8.3486547724599E-02  1.1656724259196E-02
7  6.0000000000000E-02  1.1935915037869E-01  1.6824103967940E-02
8  7.0000000000000E-02  1.6108380783519E-01  2.2960325859572E-02
9  8.0000000000000E-02  2.0833443491481E-01  3.0079040962558E-02
10  9.0000000000000E-02  2.6074162626124E-01  3.8195240797391E-02
11  1.0000000000000E-01  3.1789548969434E-01  4.7324947526677E-02
12  1.1000000000000E-01  3.7934879098715E-01  5.7484873027970E-02
13  1.2000000000000E-01  4.4462038603002E-01  6.8692050516634E-02
14  1.3000000000000E-01  5.1319891402115E-01  8.0963442651567E-02
15  1.4000000000000E-01  5.8454672316892E-01  9.4315530324216E-02
16  1.5000000000000E-01  6.5810399842801E-01  1.0876388655807E-01
17  1.6000000000000E-01  7.3329305903589E-01  1.2432274012957E-01
18  1.7000000000000E-01  8.0952279208801E-01  1.4100453365984E-01
19  1.8000000000000E-01  8.8619318710609E-01  1.5881948101831E-01
20  1.9000000000000E-01  9.6269993553158E-01  1.7777512892341E-01
21  2.0000000000000E-01  1.0384390583304E+00  1.9787592762031E-01
22  2.1000000000000E-01  1.1128115244410E+00  2.1912281546240E-01
23  2.2000000000000E-01  1.1852278226444E+00  2.4151282212065E-01
24  2.3000000000000E-01  1.2551124496007E+00  2.6503869499487E-01
25  2.4000000000000E-01  1.3219082772724E+00  2.8968855320402E-01
26  2.5000000000000E-01  1.3850807637711E+00  3.1544557329061E-01
27  2.6000000000000E-01  1.4441219727920E+00  3.4228771048972E-01
28  2.7000000000000E-01  1.4985543682671E+00  3.7018745908821E-01
29  2.8000000000000E-01  1.5479343526484E+00  3.9911165503728E-01
30  2.9000000000000E-01  1.5918555193242E+00  4.2902132358662E-01
31  3.0000000000000E-01  1.6299515920658E+00  4.5987157428223E-01
32  3.1000000000000E-01  1.6618990270787E+00  4.9161154521995E-01
33  3.2000000000000E-01  1.6874192561640E+00  5.2418439797449E-01
34  3.3000000000000E-01  1.7062805526772E+00  5.5752736413640E-01
35  3.4000000000000E-01  1.7182995053504E+00  5.9157184389049E-01
36  3.5000000000000E-01  1.7233420886104E+00  6.2624355656469E-01
37  3.6000000000000E-01  1.7213243217316E+00  6.6146274257340E-01
38  3.7000000000000E-01  1.7122125129736E+00  6.9714441567902E-01
39  3.8000000000000E-01  1.6960230887390E+00  7.3319866400563E-01
40  3.9000000000000E-01  1.6728220116866E+00  7.6953099776415E-01
41  4.0000000000000E-01  1.6427237956290E+00  8.0604274119418E-01
42  4.1000000000000E-01  1.6058901288667E+00  8.4263146579968E-01
43  4.2000000000000E-01  1.5625281213328E+00  8.7919146155662E-01
44  4.3000000000000E-01  1.5128881944961E+00  9.1561424240709E-01
45  4.4000000000000E-01  1.4572616363493E+00  9.5178908202826E-01
46  4.5000000000000E-01  1.3959778469578E+00  9.8760357558042E-01
47  4.6000000000000E-01  1.3294013029214E+00  1.0229442228988E+00
48  4.7000000000000E-01  1.2579282716735E+00  1.0576970284015E+00
49  4.8000000000000E-01  1.1819833087727E+00  1.0917481128421E+00
50  4.9000000000000E-01  1.1020155732087E+00  1.1249843319423E+00
51  5.0000000000000E-01  1.0184949972203E+00  1.1572938968979E+00
52  5.1000000000000E-01  9.3190834819021E-01  1.1885669917596E+00
53  5.2000000000000E-01  8.4275522082860E-01  1.2186963827487E+00
54  5.3000000000000E-01  7.5154399807213E-01  1.2475780146768E+00
55  5.4000000000000E-01  6.5878781891311E-01  1.2751115897935E+00
56  5.5000000000000E-01  5.6500059072999E-01  1.3012011245876E+00
57  5.6000000000000E-01  4.7069308263187E-01  1.3257554803087E+00
58  5.7000000000000E-01  3.7636913486830E-01  1.3486888632605E+00
59  5.8000000000000E-01  2.8252201751260E-01  1.3699212912310E+00
60  5.9000000000000E-01  1.8963096942893E-01  1.3893790227750E+00
61  6.0000000000000E-01  9.8157946010829E-02  1.4069949464377E+00
62  6.1000000000000E-01  8.5446013674590E-03  1.4227089274031E+00
63  6.2000000000000E-01 -7.8790472428023E-02  1.4364681094647E+00
64  6.3000000000000E-01 -1.6345422968247E-01  1.4482271706368E+00
65  6.4000000000000E-01 -2.4508136310559E-01  1.4579485311600E+00
66  6.5000000000000E-01 -3.2333619114572E-01  1.4656025130790E+00
67  6.6000000000000E-01 -3.9791423188773E-01  1.4711674510029E+00
68  6.7000000000000E-01 -4.6854345839689E-01  1.4746297540762E+00
69  6.8000000000000E-01 -5.3498523399772E-01  1.4759839195911E+00
70  6.9000000000000E-01 -5.9703492950634E-01  1.4752324990631E+00
71  7.0000000000000E-01 -6.5452222784208E-01  1.4723860179553E+00
72  7.1000000000000E-01 -7.0731112468759E-01  1.4674628505790E+00
73  7.2000000000000E-01 -7.5529963690539E-01  1.4604890520107E+00
74  7.3000000000000E-01 -7.9841923321713E-01  1.4514981491474E+00
75  7.4000000000000E-01 -8.3663400417812E-01  1.4405308932723E+00
76  7.5000000000000E-01 -8.6993959070626E-01  1.4276349767157E+00
77  7.6000000000000E-01 -8.9836189232947E-01  1.4128647163796E+00
78  7.7000000000000E-01 -9.2195557788250E-01  1.3962807070333E+00
79  7.8000000000000E-01 -9.4080242260065E-01  1.3779494474018E+00
80  7.9000000000000E-01 -9.5500949641966E-01  1.3579429421374E+00
81  8.0000000000000E-01 -9.6470722879652E-01  1.3363382828086E+00
82  8.1000000000000E-01 -9.7004737552273E-01  1.3132172110487E+00
83  8.2000000000000E-01 -9.7120091281715E-01  1.2886656669814E+00
84  8.3000000000000E-01 -9.6835588347959E-01  1.2627733259986E+00
85  8.4000000000000E-01 -9.6171521907568E-01  1.2356331268838E+00
86  8.5000000000000E-01 -9.5149456103538E-01  1.2073407941886E+00
87  8.6000000000000E-01 -9.3792010220874E-01  1.1779943576477E+00
88  8.7000000000000E-01 -9.2122646886540E-01  1.1476936712970E+00
89  8.8000000000000E-01 -9.0165466138189E-01  1.1165399348142E+00
90  8.9000000000000E-01 -8.7945006997022E-01  1.0846352194561E+00
91  9.0000000000000E-01 -8.5486057979782E-01  1.0520820008127E+00
92  9.1000000000000E-01 -8.2813477777166E-01  1.0189827004432E+00
93  9.2000000000000E-01 -7.9952027114397E-01  9.8543923830605E-01
94  9.3000000000000E-01 -7.6926212598112E-01  9.5155259774551E-01
95  9.4000000000000E-01 -7.3760143145473E-01  9.1742240465168E-01
96  9.5000000000000E-01 -7.0477399389747E-01  8.8314652227828E-01