Fr    ONCVPSP-4.0.1  r_core=   1.60257   1.60257   1.75302
     87.0000     27.0000      211120    zatom,zion,pspd
     8      11   2     4   600     0    pspcod,pspxc,lmax,lloc,mmax,r2well
  5.99000000  5.00000000  0.00000000    rchrg fchrg qchrg
     3     2     2     0     0    nproj
     1     1           extension_switch
   0                         9.3578957841326E+00 -3.2854461555561E+00  4.7995446054964E-01
     1  0.0000000000000E+00 -2.3957303918465E-09 -1.7992063394701E-10 -1.0331748345749E-08
     2  1.0000000000000E-02  1.1797679301820E-01  2.9474616757146E-02  5.7552029251009E-02
     3  2.0000000000000E-02  2.3536502793677E-01  5.8939124121017E-02  1.1435681453424E-01
     4  3.0000000000000E-02  3.5158029429767E-01  8.8383458111738E-02  1.6967690247765E-01
     5  4.0000000000000E-02  4.6604643360202E-01  1.1779764356138E-01  2.2279426819306E-01
     6  5.0000000000000E-02  5.7819955760495E-01  1.4717183353018E-01  2.7301965045875E-01
     7  6.0000000000000E-02  6.8749193913081E-01  1.7649634286696E-01  3.1970143956889E-01
     8  7.0000000000000E-02  7.9339573578500E-01  2.0576167417840E-01  3.6223398114583E-01
     9  8.0000000000000E-02  8.9540650933486E-01  2.3495853465182E-01  4.0006516954239E-01
    10  9.0000000000000E-02  9.9304650644656E-01  2.6407784239388E-01  4.3270321699919E-01
    11  1.0000000000000E-01  1.0858676698492E+00  2.9311072119825E-01  4.5972249922974E-01
    12  1.1000000000000E-01  1.1734543527918E+00  3.2204848293422E-01  4.8076839430778E-01
    13  1.2000000000000E-01  1.2554257137978E+00  3.5088259704924E-01  4.9556104931961E-01
    14  1.3000000000000E-01  1.3314377731368E+00  3.7960464699448E-01  5.0389802788773E-01
    15  1.4000000000000E-01  1.4011851170452E+00  4.0820627370879E-01  5.0565581101756E-01
    16  1.5000000000000E-01  1.4644022404618E+00  4.3667910662352E-01  5.0079014340365E-01
    17  1.6000000000000E-01  1.5208645238208E+00  4.6501468297432E-01  4.8933523699092E-01
    18  1.7000000000000E-01  1.5703888441842E+00  4.9320435651682E-01  4.7140186284882E-01
    19  1.8000000000000E-01  1.6128338256208E+00  5.2123919703672E-01  4.4717438092895E-01
    20  1.9000000000000E-01  1.6480997381729E+00  5.4910988231301E-01  4.1690677470470E-01
    21  2.0000000000000E-01  1.6761280589341E+00  5.7680658443157E-01  3.8091777370793E-01
    22  2.1000000000000E-01  1.6969007126110E+00  6.0431885254888E-01  3.3958516130578E-01
    23  2.2000000000000E-01  1.7104390124210E+00  6.3163549436885E-01  2.9333937744857E-01
    24  2.3000000000000E-01  1.7168023252204E+00  6.5874445871423E-01  2.4265653633470E-01
    25  2.4000000000000E-01  1.7160864873341E+00  6.8563272164783E-01  1.8805098685164E-01
    26  2.5000000000000E-01  1.7084219996288E+00  7.1228617862242E-01  1.3006754908780E-01
    27  2.6000000000000E-01  1.6939720319224E+00  7.3868954511432E-01  6.9273563139495E-02
    28  2.7000000000000E-01  1.6729302678348E+00  7.6482626812177E-01  6.2508868116882E-03
    29  2.8000000000000E-01  1.6455186216620E+00  7.9067845078801E-01 -5.8412023349660E-02
    30  2.9000000000000E-01  1.6119848588053E+00  8.1622679224143E-01 -1.2412781785253E-01
    31  3.0000000000000E-01  1.5726001507231E+00  8.4145054453535E-01 -1.9031762398911E-01
    32  3.1000000000000E-01  1.5276565943289E+00  8.6632748832058E-01 -2.5641796571259E-01
    33  3.2000000000000E-01  1.4774647242685E+00  8.9083392860035E-01 -3.2188713094804E-01
    34  3.3000000000000E-01  1.4223510446093E+00  9.1494471160476E-01 -3.8621089642255E-01
    35  3.4000000000000E-01  1.3626556042300E+00  9.3863326348553E-01 -4.4890753435132E-01
    36  3.5000000000000E-01  1.2987296376467E+00  9.6187165117918E-01 -5.0953204072300E-01
    37  3.6000000000000E-01  1.2309332902264E+00  9.8463066542367E-01 -5.6767954117577E-01
    38  3.7000000000000E-01  1.1596334437794E+00  1.0068799255466E+00 -6.2298784721339E-01
    39  3.8000000000000E-01  1.0852016554455E+00  1.0285880052805E+00 -6.7513915245059E-01
    40  3.9000000000000E-01  1.0080122196750E+00  1.0497225785068E+00 -7.2386087535294E-01
    41  4.0000000000000E-01  9.2844036000335E-01  1.0702505834964E+00 -7.6892567123941E-01
    42  4.1000000000000E-01  8.4686055430159E-01  1.0901384038992E+00 -8.1015065181373E-01
    43  4.2000000000000E-01  7.6364499430428E-01  1.1093520644530E+00 -8.4739586491047E-01
    44  4.3000000000000E-01  6.7916217753210E-01  1.1278574391340E+00 -8.8056210019578E-01
    45  4.4000000000000E-01  5.9377562728176E-01  1.1456204692560E+00 -9.0958809803558E-01
    46  4.5000000000000E-01  5.0784273419757E-01  1.1626073888635E+00 -9.3444724841492E-01
    47  4.6000000000000E-01  4.2171371109873E-01  1.1787849546348E+00 -9.5514387451053E-01
    48  4.7000000000000E-01  3.3573065124420E-01  1.1941206774421E+00 -9.7170920115382E-01
    49  4.8000000000000E-01  2.5022667908856E-01  1.2085830526839E+00 -9.8419711190733E-01
    50  4.9000000000000E-01  1.6552518183332E-01  1.2221417865328E+00 -9.9267979975741E-01
    51  5.0000000000000E-01  8.1939109706020E-02  1.2347680153070E+00 -9.9724341553625E-01
    52  5.1000000000000E-01 -2.2966709969897E-04  1.2464345152962E+00 -9.9798381516397E-01
    53  5.2000000000000E-01 -8.0690956528085E-02  1.2571159005306E+00 -9.9500250173994E-01
    54  5.3000000000000E-01 -1.5916680881845E-01  1.2667888061840E+00 -9.8840285156742E-01
    55  5.4000000000000E-01 -2.3539205671693E-01  1.2754320555426E+00 -9.7828670450850E-01
    56  5.5000000000000E-01 -3.0911484046619E-01  1.2830268087384E+00 -9.6475138887514E-01
    57  5.6000000000000E-01 -3.8009712478233E-01  1.2895566917456E+00 -9.4788723956856E-01
    58  5.7000000000000E-01 -4.4811521332792E-01  1.2950079044546E+00 -9.2777565566239E-01
    59  5.8000000000000E-01 -5.1296026434768E-01  1.2993693069708E+00 -9.0448773033853E-01
    60  5.9000000000000E-01 -5.7443880920382E-01  1.3026324836275E+00 -8.7808347233529E-01
    61  6.0000000000000E-01 -6.3237327357728E-01  1.3047917845430E+00 -8.4861162411556E-01
    62  6.1000000000000E-01 -6.8660249914777E-01  1.3058443448923E+00 -8.1611006813279E-01
    63  6.2000000000000E-01 -7.3698226167404E-01  1.3057900823910E+00 -7.8060679911825E-01
    64  6.3000000000000E-01 -7.8338577961930E-01  1.3046316738012E+00 -7.4212142752929E-01
    65  6.4000000000000E-01 -8.2570420584846E-01  1.3023745115591E+00 -7.0066716742965E-01
    66  6.5000000000000E-01 -8.6384709350430E-01  1.2990266418865E+00 -6.5625325135059E-01
    67  6.6000000000000E-01 -8.9774282598960E-01  1.2945986859801E+00 -6.0888770533144E-01
    68  6.7000000000000E-01 -9.2733900006496E-01  1.2891037460713E+00 -5.5858040950609E-01
    69  6.8000000000000E-01 -9.5260275044949E-01  1.2825572983041E+00 -5.0534636346412E-01
    70  6.9000000000000E-01 -9.7352100399625E-01  1.2749770745007E+00 -4.4920907125788E-01
    71  7.0000000000000E-01 -9.9010065151849E-01  1.2663829349600E+00 -3.9020395842578E-01
    72  7.1000000000000E-01 -1.0023686256703E+00  1.2567967344683E+00 -3.2838173279428E-01
    73  7.2000000000000E-01 -1.0103718739296E+00  1.2462421836947E+00 -2.6381160208262E-01
    74  7.3000000000000E-01 -1.0141772166867E+00  1.2347447080963E+00 -1.9658426444859E-01
    75  7.4000000000000E-01 -1.0138710816822E+00  1.2223313063705E+00 -1.2681459295847E-01
    76  7.5000000000000E-01 -1.0095591075466E+00  1.2090304103679E+00 -5.4643941460029E-02
    77  7.6000000000000E-01 -1.0013656109384E+00  1.1948717482244E+00  1.9757992692646E-02
    78  7.7000000000000E-01 -9.8943291371756E-01  1.1798862122841E+00  9.6191804326503E-02
    79  7.8000000000000E-01 -9.7392052869657E-01  1.1641057331757E+00  1.7442755943629E-01
    80  7.9000000000000E-01 -9.5500420472903E-01  1.1475631611727E+00  2.5420455108383E-01
    81  8.0000000000000E-01 -9.3287483418780E-01  1.1302921557264E+00  3.3523165391580E-01
    82  8.1000000000000E-01 -9.0773722819771E-01  1.1123270838031E+00  4.1718828670256E-01
    83  8.2000000000000E-01 -8.7980876727869E-01  1.0937029274009E+00  4.9972597985359E-01
    84  8.3000000000000E-01 -8.4931793727188E-01  1.0744552003641E+00  5.8247053253702E-01
    85  8.4000000000000E-01 -8.1650276252170E-01  1.0546198743647E+00  6.6502473206060E-01
    86  8.5000000000000E-01 -7.8160915022234E-01  1.0342333136823E+00  7.4697159681280E-01
    87  8.6000000000000E-01 -7.4488916157264E-01  1.0133322181933E+00  8.2787809352050E-01
    88  8.7000000000000E-01 -7.0659922687628E-01  9.9195357378155E-01  9.0729927008289E-01
    89  8.8000000000000E-01 -6.6699832294751E-01  9.7013460920887E-01  9.8478273695346E-01
    90  8.9000000000000E-01 -6.2634613210674E-01  9.4791275833719E-01  1.0598734231309E+00
    91  9.0000000000000E-01 -5.8490120265673E-01  9.2532562648116E-01  1.1321185274082E+00
    92  9.1000000000000E-01 -5.4291913100304E-01  9.0241095958810E-01  1.2010725817154E+00
    93  9.2000000000000E-01 -5.0065078551558E-01  8.7920661489605E-01  1.2663025412376E+00
    94  9.3000000000000E-01 -4.5834059181985E-01  8.5575053170895E-01  1.3273928155207E+00
    95  9.4000000000000E-01 -4.1622489846267E-01  8.3208070095143E-01  1.3839501560023E+00
    96  9.5000000000000E-01 -3.7453044083195E-01  8.0823513222314E-01  1.4356083182560E+00
    97  9.6000000000000E-01 -3.3347291983827E-01  7.8425181716255E-01  1.4820324216850E+00
    98  9.7000000000000E-01 -2.9325571021825E-01  7.6016868804976E-01  1.5229229352949E+00
    99  9.8000000000000E-01 -2.5406871141911E-01  7.3602357072584E-01  1.5580192254314E+00
   100  9.9000000000000E-01 -2.1608735191154E-01  7.1185413107709E-01  1.5871026097911E+00
   101  1.0000000000000E+00 -1.7947175548924E-01  6.8769781452420E-01  1.6099988714491E+00
   102  1.0100000000000E+00 -1.4436607569143E-01  6.6359177816363E-01  1.6265801968893E+00
   103  1.0200000000000E+00 -1.1089800197363E-01  6.3957281542680E-01  1.6367665128626E+00
   104  1.0300000000000E+00 -7.9178438700556E-02  6.1567727334770E-01  1.6405262081055E+00
   105  1.0400000000000E+00 -4.9301355486436E-02  5.9194096275629E-01  1.6378762373131E+00
   106  1.0500000000000E+00 -2.1343804911151E-02  5.6839906193785E-01  1.6288816160406E+00
   107  1.0600000000000E+00  4.6338987569155E-03  5.4508601451403E-01  1.6136543261711E+00
   108  1.0700000000000E+00  2.8587848459626E-02  5.2203542250297E-01  1.5923516620350E+00
   109  1.0800000000000E+00  5.0490071575450E-02  4.9927993570145E-01  1.5651740569878E+00
   110  1.0900000000000E+00  7.0327928032285E-02  4.7685113869523E-01  1.5323624390258E+00
   111  1.1000000000000E+00  8.8103393477267E-02  4.5477943694272E-01  1.4941951717482E+00
   112  1.1100000000000E+00  1.0383224298999E-01  4.3309394348762E-01  1.4509846433927E+00
   113  1.1200000000000E+00  1.1754315185282E-01  4.1182236793588E-01  1.4030735717921E+00
   114  1.1300000000000E+00  1.2927673058517E-01  3.9099090937947E-01  1.3508310966961E+00
   115  1.1400000000000E+00  1.3908451181491E-01  3.7062415496169E-01  1.2946487329863E+00
   116  1.1500000000000E+00  1.4702790658783E-01  3.5074498575686E-01  1.2349362588240E+00
   117  1.1600000000000E+00  1.5317714739740E-01  3.3137449157848E-01  1.1721176116503E+00
   118  1.1700000000000E+00  1.5761023457759E-01  3.1253189623812E-01  1.1066268623112E+00
   119  1.1800000000000E+00  1.6041190172652E-01  2.9423449464993E-01  1.0389043333441E+00
   120  1.1900000000000E+00  1.6167261456445E-01  2.7649760301726E-01  9.6939292181179E-01
   121  1.2000000000000E+00  1.6148761606908E-01  2.5933452314857E-01  8.9853468000022E-01
   122  1.2100000000000E+00  1.5995602892636E-01  2.4275652173380E-01  8.2676769901455E-01
   123  1.2200000000000E+00  1.5718002429923E-01  2.2677282517144E-01  7.5452333088759E-01
   124  1.2300000000000E+00  1.5326406368412E-01  2.1139063027483E-01  6.8222377441073E-01
   125  1.2400000000000E+00  1.4831421825254E-01  1.9661513090841E-01  6.1028003876803E-01
   126  1.2500000000000E+00  1.4243756755883E-01  1.8244956031160E-01  5.3909028719075E-01
   127  1.2600000000000E+00  1.3574167692098E-01  1.6889524856821E-01  4.6903855065083E-01
   128  1.2700000000000E+00  1.2833415015660E-01  1.5595169437383E-01  4.0049378911677E-01
   129  1.2800000000000E+00  1.2032225172000E-01  1.4361664994663E-01  3.3380926529326E-01
   130  1.2900000000000E+00  1.1181258969877E-01  1.3188621762524E-01  2.6932218334527E-01
   131  1.3000000000000E+00  1.0291084860093E-01  1.2075495640238E-01  2.0735353292856E-01
   132  1.3100000000000E+00  9.3721558434121E-02  1.1021599635833E-01  1.4820806709444E-01
   133  1.3200000000000E+00  8.4347884287088E-02  1.0026115868959E-01  9.2174331511228E-02
   134  1.3300000000000E+00  7.4891418493228E-02  9.0881078777433E-02  3.9524652060995E-02
   135  1.3400000000000E+00  6.5451955490019E-02  8.2065329509164E-02 -9.4850217494293E-03
   136  1.3500000000000E+00  5.6127227738915E-02  7.3802541858072E-02 -5.4615528714350E-02
   137  1.3600000000000E+00  4.7012579526418E-02  6.6080519545351E-02 -9.5645281953705E-02
   138  1.3700000000000E+00  3.8200554147325E-02  5.8886344450807E-02 -1.3237155433065E-01
   139  1.3800000000000E+00  2.9780368881989E-02  5.2206469310462E-02 -1.6461239396681E-01
   140  1.3900000000000E+00  2.1837251324360E-02  4.6026794138796E-02 -1.9220930482441E-01
   141  1.4000000000000E+00  1.4451609991597E-02  4.0332722741139E-02 -2.1503083045891E-01
   142  1.4100000000000E+00  7.6980117450103E-03  3.5109195637680E-02 -2.3297718105788E-01
   143  1.4200000000000E+00  1.6439383676332E-03  3.0340695704093E-02 -2.4598604480767E-01
   144  1.4300000000000E+00 -3.6517053345256E-03  2.6011222843997E-02 -2.5403972450807E-01
   145  1.4400000000000E+00 -8.1403593286938E-03  2.2104234044056E-02 -2.5717373925966E-01
   146  1.4500000000000E+00 -1.1785879080299E-02  1.8602545222218E-02 -2.5548702903019E-01
   147  1.4600000000000E+00 -1.4566935693729E-02  1.5488191360943E-02 -2.4915389707510E-01
   148  1.4700000000000E+00 -1.6479771263698E-02  1.2742241519940E-02 -2.3843782156962E-01
   149  1.4800000000000E+00 -1.7541336095534E-02  1.0344565255668E-02 -2.2370727457195E-01
   150  1.4900000000000E+00 -1.7792827382785E-02  8.2735477974119E-03 -2.0545364019183E-01
   151  1.5000000000000E+00 -1.7303622806621E-02  6.5057545259526E-03 -1.8431116822219E-01
   152  1.5100000000000E+00 -1.6174784662043E-02  5.0156346973823E-03 -1.6107341446097E-01
   153  1.5200000000000E+00 -1.4529613187422E-02  3.7766844180487E-03 -1.3662503203439E-01
   154  1.5300000000000E+00 -1.2513748701118E-02  2.7607131106993E-03 -1.1190743386414E-01
   155  1.5400000000000E+00 -1.0286608943352E-02  1.9390586049673E-03 -8.7878464567976E-02
   156  1.5500000000000E+00 -7.9717752036799E-03  1.2912631384525E-03 -6.5300929666374E-02
   157  1.5600000000000E+00 -5.7027241988379E-03  7.9758696194253E-04 -4.4932189804152E-02
   158  1.5700000000000E+00 -3.6213936778278E-03  4.3916821517048E-04 -2.7517969117951E-02
   159  1.5800000000000E+00 -1.8781073378712E-03  1.9818853155757E-04 -1.3794261202048E-02
   160  1.5900000000000E+00 -6.2063028841176E-04  5.7299339679326E-05 -4.4169183876000E-03
   161  1.6000000000000E+00 -4.5727278282602E-05  3.6611347470706E-06 -3.1494660892416E-04
   162  1.6100000000000E+00  9.6380630866574E-06 -7.1654502416813E-07  6.5476952398521E-05
   163  1.6200000000000E+00 -2.9146440516687E-06  2.3326384698057E-07 -2.0113616322385E-05
   164  1.63  0. -0.  0.
   165  1.64 -0. -0. -0.
   166  1.65  0.  0.  0.
   167  1.66  0.  0.  0.
   168  1.67  0.  0.  0.
   169  1.68  0.  0.  0.
   170  1.69  0.  0.  0.
   171  1.70  0.  0.  0.
   172  1.71  0.  0.  0.
   173  1.72  0.  0.  0.
   174  1.73  0.  0.  0.
   175  1.74  0.  0.  0.
   176  1.75  0.  0.  0.
   177  1.76  0.  0.  0.
   178  1.77  0.  0.  0.
   179  1.78  0.  0.  0.
   180  1.79  0.  0.  0.
   181  1.80  0.  0.  0.
   182  1.81  0.  0.  0.
   183  1.82  0.  0.  0.
   184  1.83  0.  0.  0.
   185  1.84  0.  0.  0.
   186  1.85  0.  0.  0.
   187  1.86  0.  0.  0.
   188  1.87  0.  0.  0.
   189  1.88  0.  0.  0.
   190  1.89  0.  0.  0.
   191  1.90  0.  0.  0.
   192  1.91  0.  0.  0.
   193  1.92  0.  0.  0.
   194  1.93  0.  0.  0.
   195  1.94  0.  0.  0.
   196  1.95  0.  0.  0.
   197  1.96  0.  0.  0.
   198  1.97  0.  0.  0.
   199  1.98  0.  0.  0.
   200  1.99  0.  0.  0.
   201  2.00  0.  0.  0.
   202  2.01  0.  0.  0.
   203  2.02  0.  0.  0.
   204  2.03  0.  0.  0.
   205  2.04  0.  0.  0.
   206  2.05  0.  0.  0.
   207  2.06  0.  0.  0.
   208  2.07  0.  0.  0.
   209  2.08  0.  0.  0.
   210  2.09  0.  0.  0.
   211  2.10  0.  0.  0.
   212  2.11  0.  0.  0.
   213  2.12  0.  0.  0.
   214  2.13  0.  0.  0.
   215  2.14  0.  0.  0.
   216  2.15  0.  0.  0.
   217  2.16  0.  0.  0.
   218  2.17  0.  0.  0.
   219  2.18  0.  0.  0.
   220  2.19  0.  0.  0.
   221  2.20  0.  0.  0.
   222  2.21  0.  0.  0.
   223  2.22  0.  0.  0.
   224  2.23  0.  0.  0.
   225  2.24  0.  0.  0.
   226  2.25  0.  0.  0.
   227  2.26  0.  0.  0.
   228  2.27  0.  0.  0.
   229  2.28  0.  0.  0.
   230  2.29  0.  0.  0.
   231  2.30  0.  0.  0.
   232  2.31  0.  0.  0.
   233  2.32  0.  0.  0.
   234  2.33  0.  0.  0.
   235  2.34  0.  0.  0.
   236  2.35  0.  0.  0.
   237  2.36  0.  0.  0.
   238  2.37  0.  0.  0.
   239  2.38  0.  0.  0.
   240  2.39  0.  0.  0.
   241  2.40  0.  0.  0.
   242  2.41  0.  0.  0.
   243  2.42  0.  0.  0.
   244  2.43  0.  0.  0.
   245  2.44  0.  0.  0.
   246  2.45  0.  0.  0.
   247  2.46  0.  0.  0.
   248  2.47  0.  0.  0.
   249  2.48  0.  0.  0.
   250  2.49  0.  0.  0.
   251  2.50  0.  0.  0.
   252  2.51  0.  0.  0.
   253  2.52  0.  0.  0.
   254  2.53  0.  0.  0.
   255  2.54  0.  0.  0.
   256  2.55  0.  0.  0.
   257  2.56  0.  0.  0.
   258  2.57  0.  0.  0.
   259  2.58  0.  0.  0.
   260  2.59  0.  0.  0.
   261  2.60  0.  0.  0.
   262  2.61  0.  0.  0.
   263  2.62  0.  0.  0.
   264  2.63  0.  0.  0.
   265  2.64  0.  0.  0.
   266  2.65  0.  0.  0.
   267  2.66  0.  0.  0.
   268  2.67  0.  0.  0.
   269  2.68  0.  0.  0.
   270  2.69  0.  0.  0.
   271  2.70  0.  0.  0.
   272  2.71  0.  0.  0.
   273  2.72  0.  0.  0.
   274  2.73  0.  0.  0.
   275  2.74  0.  0.  0.
   276  2.75  0.  0.  0.
   277  2.76  0.  0.  0.
   278  2.77  0.  0.  0.
   279  2.78  0.  0.  0.
   280  2.79  0.  0.  0.
   281  2.80  0.  0.  0.
   282  2.81  0.  0.  0.
   283  2.82  0.  0.  0.
   284  2.83  0.  0.  0.
   285  2.84  0.  0.  0.
   286  2.85  0.  0.  0.
   287  2.86  0.  0.  0.
   288  2.87  0.  0.  0.
   289  2.88  0.  0.  0.
   290  2.89  0.  0.  0.
   291  2.90  0.  0.  0.
   292  2.91  0.  0.  0.
   293  2.92  0.  0.  0.
   294  2.93  0.  0.  0.
   295  2.94  0.  0.  0.
   296  2.95  0.  0.  0.
   297  2.96  0.  0.  0.
   298  2.97  0.  0.  0.
   299  2.98  0.  0.  0.
   300  2.99  0.  0.  0.
   301  3.00  0.  0.  0.
   302  3.01  0.  0.  0.
   303  3.02  0.  0.  0.
   304  3.03  0.  0.  0.
   305  3.04  0.  0.  0.
   306  3.05  0.  0.  0.
   307  3.06  0.  0.  0.
   308  3.07  0.  0.  0.
   309  3.08  0.  0.  0.
   310  3.09  0.  0.  0.
   311  3.10  0.  0.  0.
   312  3.11  0.  0.  0.
   313  3.12  0.  0.  0.
   314  3.13  0.  0.  0.
   315  3.14  0.  0.  0.
   316  3.15  0.  0.  0.
   317  3.16  0.  0.  0.
   318  3.17  0.  0.  0.
   319  3.18  0.  0.  0.
   320  3.19  0.  0.  0.
   321  3.20  0.  0.  0.
   322  3.21  0.  0.  0.
   323  3.22  0.  0.  0.
   324  3.23  0.  0.  0.
   325  3.24  0.  0.  0.
   326  3.25  0.  0.  0.
   327  3.26  0.  0.  0.
   328  3.27  0.  0.  0.
   329  3.28  0.  0.  0.
   330  3.29  0.  0.  0.
   331  3.30  0.  0.  0.
   332  3.31  0.  0.  0.
   333  3.32  0.  0.  0.
   334  3.33  0.  0.  0.
   335  3.34  0.  0.  0.
   336  3.35  0.  0.  0.
   337  3.36  0.  0.  0.
   338  3.37  0.  0.  0.
   339  3.38  0.  0.  0.
   340  3.39  0.  0.  0.
   341  3.40  0.  0.  0.
   342  3.41  0.  0.  0.
   343  3.42  0.  0.  0.
   344  3.43  0.  0.  0.
   345  3.44  0.  0.  0.
   346  3.45  0.  0.  0.
   347  3.46  0.  0.  0.
   348  3.47  0.  0.  0.
   349  3.48  0.  0.  0.
   350  3.49  0.  0.  0.
   351  3.50  0.  0.  0.
   352  3.51  0.  0.  0.
   353  3.52  0.  0.  0.
   354  3.53  0.  0.  0.
   355  3.54  0.  0.  0.
   356  3.55  0.  0.  0.
   357  3.56  0.  0.  0.
   358  3.57  0.  0.  0.
   359  3.58  0.  0.  0.
   360  3.59  0.  0.  0.
   361  3.60  0.  0.  0.
   362  3.61  0.  0.  0.
   363  3.62  0.  0.  0.
   364  3.63  0.  0.  0.
   365  3.64  0.  0.  0.
   366  3.65  0.  0.  0.
   367  3.66  0.  0.  0.
   368  3.67  0.  0.  0.
   369  3.68  0.  0.  0.
   370  3.69  0.  0.  0.
   371  3.70  0.  0.  0.
   372  3.71  0.  0.  0.
   373  3.72  0.  0.  0.
   374  3.73  0.  0.  0.
   375  3.74  0.  0.  0.
   376  3.75  0.  0.  0.
   377  3.76  0.  0.  0.
   378  3.77  0.  0.  0.
   379  3.78  0.  0.  0.
   380  3.79  0.  0.  0.
   381  3.80  0.  0.  0.
   382  3.81  0.  0.  0.
   383  3.82  0.  0.  0.
   384  3.83  0.  0.  0.
   385  3.84  0.  0.  0.
   386  3.85  0.  0.  0.
   387  3.86  0.  0.  0.
   388  3.87  0.  0.  0.
   389  3.88  0.  0.  0.
   390  3.89  0.  0.  0.
   391  3.90  0.  0.  0.
   392  3.91  0.  0.  0.
   393  3.92  0.  0.  0.
   394  3.93  0.  0.  0.
   395  3.94  0.  0.  0.
   396  3.95  0.  0.  0.
   397  3.96  0.  0.  0.
   398  3.97  0.  0.  0.
   399  3.98  0.  0.  0.
   400  3.99  0.  0.  0.
   401  4.00  0.  0.  0.
   402  4.01  0.  0.  0.
   403  4.02  0.  0.  0.
   404  4.03  0.  0.  0.
   405  4.04  0.  0.  0.
   406  4.05  0.  0.  0.
   407  4.06  0.  0.  0.
   408  4.07  0.  0.  0.
   409  4.08  0.  0.  0.
   410  4.09  0.  0.  0.
   411  4.10  0.  0.  0.
   412  4.11  0.  0.  0.
   413  4.12  0.  0.  0.
   414  4.13  0.  0.  0.
   415  4.14  0.  0.  0.
   416  4.15  0.  0.  0.
   417  4.16  0.  0.  0.
   418  4.17  0.  0.  0.
   419  4.18  0.  0.  0.
   420  4.19  0.  0.  0.
   421  4.20  0.  0.  0.
   422  4.21  0.  0.  0.
   423  4.22  0.  0.  0.
   424  4.23  0.  0.  0.
   425  4.24  0.  0.  0.
   426  4.25  0.  0.  0.
   427  4.26  0.  0.  0.
   428  4.27  0.  0.  0.
   429  4.28  0.  0.  0.
   430  4.29  0.  0.  0.
   431  4.30  0.  0.  0.
   432  4.31  0.  0.  0.
   433  4.32  0.  0.  0.
   434  4.33  0.  0.  0.
   435  4.34  0.  0.  0.
   436  4.35  0.  0.  0.
   437  4.36  0.  0.  0.
   438  4.37  0.  0.  0.
   439  4.38  0.  0.  0.
   440  4.39  0.  0.  0.
   441  4.40  0.  0.  0.
   442  4.41  0.  0.  0.
   443  4.42  0.  0.  0.
   444  4.43  0.  0.  0.
   445  4.44  0.  0.  0.
   446  4.45  0.  0.  0.
   447  4.46  0.  0.  0.
   448  4.47  0.  0.  0.
   449  4.48  0.  0.  0.
   450  4.49  0.  0.  0.
   451  4.50  0.  0.  0.
   452  4.51  0.  0.  0.
   453  4.52  0.  0.  0.
   454  4.53  0.  0.  0.
   455  4.54  0.  0.  0.
   456  4.55  0.  0.  0.
   457  4.56  0.  0.  0.
   458  4.57  0.  0.  0.
   459  4.58  0.  0.  0.
   460  4.59  0.  0.  0.
   461  4.60  0.  0.  0.
   462  4.61  0.  0.  0.
   463  4.62  0.  0.  0.
   464  4.63  0.  0.  0.
   465  4.64  0.  0.  0.
   466  4.65  0.  0.  0.
   467  4.66  0.  0.  0.
   468  4.67  0.  0.  0.
   469  4.68  0.  0.  0.
   470  4.69  0.  0.  0.
   471  4.70  0.  0.  0.
   472  4.71  0.  0.  0.
   473  4.72  0.  0.  0.
   474  4.73  0.  0.  0.
   475  4.74  0.  0.  0.
   476  4.75  0.  0.  0.
   477  4.76  0.  0.  0.
   478  4.77  0.  0.  0.
   479  4.78  0.  0.  0.
   480  4.79  0.  0.  0.
   481  4.80  0.  0.  0.
   482  4.81  0.  0.  0.
   483  4.82  0.  0.  0.
   484  4.83  0.  0.  0.
   485  4.84  0.  0.  0.
   486  4.85  0.  0.  0.
   487  4.86  0.  0.  0.
   488  4.87  0.  0.  0.
   489  4.88  0.  0.  0.
   490  4.89  0.  0.  0.
   491  4.90  0.  0.  0.
   492  4.91  0.  0.  0.
   493  4.92  0.  0.  0.
   494  4.93  0.  0.  0.
   495  4.94  0.  0.  0.
   496  4.95  0.  0.  0.
   497  4.96  0.  0.  0.
   498  4.97  0.  0.  0.
   499  4.98  0.  0.  0.
   500  4.99  0.  0.  0.
   501  5.00  0.  0.  0.
   502  5.01  0.  0.  0.
   503  5.02  0.  0.  0.
   504  5.03  0.  0.  0.
   505  5.04  0.  0.  0.
   506  5.05  0.  0.  0.
   507  5.06  0.  0.  0.
   508  5.07  0.  0.  0.
   509  5.08  0.  0.  0.
   510  5.09  0.  0.  0.
   511  5.10  0.  0.  0.
   512  5.11  0.  0.  0.
   513  5.12  0.  0.  0.
   514  5.13  0.  0.  0.
   515  5.14  0.  0.  0.
   516  5.15  0.  0.  0.
   517  5.16  0.  0.  0.
   518  5.17  0.  0.  0.
   519  5.18  0.  0.  0.
   520  5.19  0.  0.  0.
   521  5.20  0.  0.  0.
   522  5.21  0.  0.  0.
   523  5.22  0.  0.  0.
   524  5.23  0.  0.  0.
   525  5.24  0.  0.  0.
   526  5.25  0.  0.  0.
   527  5.26  0.  0.  0.
   528  5.27  0.  0.  0.
   529  5.28  0.  0.  0.
   530  5.29  0.  0.  0.
   531  5.30  0.  0.  0.
   532  5.31  0.  0.  0.
   533  5.32  0.  0.  0.
   534  5.33  0.  0.  0.
   535  5.34  0.  0.  0.
   536  5.35  0.  0.  0.
   537  5.36  0.  0.  0.
   538  5.37  0.  0.  0.
   539  5.38  0.  0.  0.
   540  5.39  0.  0.  0.
   541  5.40  0.  0.  0.
   542  5.41  0.  0.  0.
   543  5.42  0.  0.  0.
   544  5.43  0.  0.  0.
   545  5.44  0.  0.  0.
   546  5.45  0.  0.  0.
   547  5.46  0.  0.  0.
   548  5.47  0.  0.  0.
   549  5.48  0.  0.  0.
   550  5.49  0.  0.  0.
   551  5.50  0.  0.  0.
   552  5.51  0.  0.  0.
   553  5.52  0.  0.  0.
   554  5.53  0.  0.  0.
   555  5.54  0.  0.  0.
   556  5.55  0.  0.  0.
   557  5.56  0.  0.  0.
   558  5.57  0.  0.  0.
   559  5.58  0.  0.  0.
   560  5.59  0.  0.  0.
   561  5.60  0.  0.  0.
   562  5.61  0.  0.  0.
   563  5.62  0.  0.  0.
   564  5.63  0.  0.  0.
   565  5.64  0.  0.  0.
   566  5.65  0.  0.  0.
   567  5.66  0.  0.  0.
   568  5.67  0.  0.  0.
   569  5.68  0.  0.  0.
   570  5.69  0.  0.  0.
   571  5.70  0.  0.  0.
   572  5.71  0.  0.  0.
   573  5.72  0.  0.  0.
   574  5.73  0.  0.  0.
   575  5.74  0.  0.  0.
   576  5.75  0.  0.  0.
   577  5.76  0.  0.  0.
   578  5.77  0.  0.  0.
   579  5.78  0.  0.  0.
   580  5.79  0.  0.  0.
   581  5.80  0.  0.  0.
   582  5.81  0.  0.  0.
   583  5.82  0.  0.  0.
   584  5.83  0.  0.  0.
   585  5.84  0.  0.  0.
   586  5.85  0.  0.  0.
   587  5.86  0.  0.  0.
   588  5.87  0.  0.  0.
   589  5.88  0.  0.  0.
   590  5.89  0.  0.  0.
   591  5.90  0.  0.  0.
   592  5.91  0.  0.  0.
   593  5.92  0.  0.  0.
   594  5.93  0.  0.  0.
   595  5.94  0.  0.  0.
   596  5.95  0.  0.  0.
   597  5.96  0.  0.  0.
   598  5.97  0.  0.  0.
   599  5.98  0.  0.  0.
   600  5.99  0.  0.  0.
   1                        -3.5271978022227E+00  1.9995260206601E+00
     1  0.0000000000000E+00  3.0936275763338E-10 -1.6676613978639E-09
     2  1.0000000000000E-02  9.2893639119570E-04  2.2318487883245E-03
     3  2.0000000000000E-02  3.7129249151243E-03  8.9152748356827E-03
     4  3.0000000000000E-02  8.3435184612594E-03  2.0013935865680E-02
     5  4.0000000000000E-02  1.4806687792951E-02  3.5467324753775E-02
     6  5.0000000000000E-02  2.3082894839473E-02  5.5190868289279E-02
     7  6.0000000000000E-02  3.3147194058388E-02  7.9076072841985E-02
     8  7.0000000000000E-02  4.4969360649298E-02  1.0699072406995E-01
     9  8.0000000000000E-02  5.8514044090672E-02  1.3877914947261E-01
    10  9.0000000000000E-02  7.3740945190076E-02  1.7426255399585E-01
    11  1.0000000000000E-01  9.0605014589938E-02  2.1323943998360E-01
    12  1.1000000000000E-01  1.0905667046015E-01  2.5548612350832E-01
    13  1.2000000000000E-01  1.2904203293943E-01  3.0075735946305E-01
    14  1.3000000000000E-01  1.5050317276148E-01  3.4878708774541E-01
    15  1.4000000000000E-01  1.7337837142260E-01  3.9928931238749E-01
    16  1.5000000000000E-01  1.9760239021434E-01  4.5195912458907E-01
    17  1.6000000000000E-01  2.2310674545905E-01  5.0647387929511E-01
    18  1.7000000000000E-01  2.4981998734652E-01  5.6249453324288E-01
    19  1.8000000000000E-01  2.7766797987443E-01  6.1966715031197E-01
    20  1.9000000000000E-01  3.0657417954155E-01  6.7762457757891E-01
    21  2.0000000000000E-01  3.3645991062704E-01  7.3598829274949E-01
    22  2.1000000000000E-01  3.6724463510750E-01  7.9437042066742E-01
    23  2.2000000000000E-01  3.9884621551049E-01  8.5237591343608E-01
    24  2.3000000000000E-01  4.3118116927421E-01  9.0960488540355E-01
    25  2.4000000000000E-01  4.6416491347087E-01  9.6565509091674E-01
    26  2.5000000000000E-01  4.9771199905118E-01  1.0201245294206E+00
    27  2.6000000000000E-01  5.3173633407137E-01  1.0726141592322E+00
    28  2.7000000000000E-01  5.6615139566694E-01  1.1227306982304E+00
    29  2.8000000000000E-01  6.0087043083139E-01  1.1700894868394E+00
    30  2.9000000000000E-01  6.3580664633834E-01  1.2143173861163E+00
    31  3.0000000000000E-01  6.7087338840448E-01  1.2550556815380E+00
    32  3.1000000000000E-01  7.0598431292467E-01  1.2919629612845E+00
    33  3.2000000000000E-01  7.4105354731262E-01  1.3247179364784E+00
    34  3.3000000000000E-01  7.7599584514837E-01  1.3530221700032E+00
    35  3.4000000000000E-01  8.1072673496259E-01  1.3766026802289E+00
    36  3.5000000000000E-01  8.4516266457472E-01  1.3952143862330E+00
    37  3.6000000000000E-01  8.7922114244697E-01  1.4086423619333E+00
    38  3.7000000000000E-01  9.1282087751581E-01  1.4167038679565E+00
    39  3.8000000000000E-01  9.4588191891916E-01  1.4192501320263E+00
    40  3.9000000000000E-01  9.7832579695093E-01  1.4161678511633E+00
    41  4.0000000000000E-01  1.0100756664465E+00  1.4073803919996E+00
    42  4.1000000000000E-01  1.0410564536367E+00  1.3928486689953E+00
    43  4.2000000000000E-01  1.0711950073082E+00  1.3725716842404E+00
    44  4.3000000000000E-01  1.1004202548755E+00  1.3465867167782E+00
    45  4.4000000000000E-01  1.1286633637160E+00  1.3149691539291E+00
    46  4.5000000000000E-01  1.1558579078430E+00  1.2778319618490E+00
    47  4.6000000000000E-01  1.1819400397024E+00  1.2353247974479E+00
    48  4.7000000000000E-01  1.2068486665849E+00  1.1876327687396E+00
    49  4.8000000000000E-01  1.2305256308471E+00  1.1349748556027E+00
    50  4.9000000000000E-01  1.2529158928485E+00  1.0776020077320E+00
    51  5.0000000000000E-01  1.2739677152314E+00  1.0157949411475E+00
    52  5.1000000000000E-01  1.2936328469180E+00  9.4986165894519E-01
    53  5.2000000000000E-01  1.3118667049634E+00  8.8013472591859E-01