Fr    ONCVPSP-4.0.1  r_core=   1.60257   1.60257   1.75302
87.0000     27.0000      220307    zatom,zion,pspd
8      11   2     4   600     0    pspcod,pspxc,lmax,lloc,mmax,r2well
5.99000000  5.00000000  0.00000000    rchrg fchrg qchrg
3     2     2     0     0    nproj
1     1           extension_switch
0                         9.3578985371120E+00 -3.2854461541833E+00  4.7995475266775E-01
1  0.0000000000000E+00 -2.3955618599913E-09 -1.7990370304588E-10 -1.0330832356242E-08
2  1.0000000000000E-02  1.1797679797250E-01  2.9474618133360E-02  5.7552012704751E-02
3  2.0000000000000E-02  2.3536503779743E-01  5.8939126865128E-02  1.1435678165035E-01
4  3.0000000000000E-02  3.5158030896918E-01  8.8383462207157E-02  1.6967685366940E-01
5  4.0000000000000E-02  4.6604645294179E-01  1.1779764898333E-01  2.2279420407043E-01
6  5.0000000000000E-02  5.7819958142430E-01  1.4717184024587E-01  2.7301957181684E-01
7  6.0000000000000E-02  6.8749196719607E-01  1.7649635083573E-01  3.1970134737268E-01
8  7.0000000000000E-02  7.9339576781904E-01  2.0576168335195E-01  3.6223387651183E-01
9  8.0000000000000E-02  8.9540654501887E-01  2.3495854497452E-01  4.0006505371758E-01
10  9.0000000000000E-02  9.9304654542213E-01  2.6407785380307E-01  4.3270309133742E-01
11  1.0000000000000E-01  1.0858677117207E+00  2.9311073362460E-01  4.5972236516635E-01
12  1.1000000000000E-01  1.1734543971288E+00  3.2204849630216E-01  4.8076825333269E-01
13  1.2000000000000E-01  1.2554257601384E+00  3.5088261127736E-01  4.9556090294992E-01
14  1.3000000000000E-01  1.3314378209905E+00  3.7960466199606E-01  5.0389787763996E-01
15  1.4000000000000E-01  1.4011851658966E+00  4.0820628939232E-01  5.0565565837993E-01
16  1.5000000000000E-01  1.4644022897741E+00  4.3667912289325E-01  5.0078998980970E-01
17  1.6000000000000E-01  1.5208645730399E+00  4.6501469973084E-01  4.8933508379452E-01
18  1.7000000000000E-01  1.5703888927428E+00  4.9320437365772E-01  4.7140171130060E-01
19  1.8000000000000E-01  1.6128338729426E+00  5.2123921445721E-01  4.4717423215621E-01
20  1.9000000000000E-01  1.6480997836775E+00  5.4910989990661E-01  4.1690662969289E-01
21  2.0000000000000E-01  1.6761281020412E+00  5.7680660209077E-01  3.8091763328621E-01
22  2.1000000000000E-01  1.6969007527455E+00  6.0431887016591E-01  3.3958502613620E-01
23  2.2000000000000E-01  1.7104390490174E+00  6.3163551183632E-01  2.9333924801783E-01
24  2.3000000000000E-01  1.7168023577282E+00  6.5874447592590E-01  2.4265641295131E-01
25  2.4000000000000E-01  1.7160865152220E+00  6.8563273849932E-01  1.8805086964580E-01
26  2.5000000000000E-01  1.7084220223899E+00  7.1228619501190E-01  1.3006743801522E-01
27  2.6000000000000E-01  1.6939720490788E+00  7.3868956094321E-01  6.9273457990052E-02
28  2.7000000000000E-01  1.6729302789418E+00  7.6482628329545E-01  6.2507872202264E-03
29  2.8000000000000E-01  1.6455186263126E+00  7.9067846521643E-01 -5.8412117888195E-02
30  2.9000000000000E-01  1.6119848566344E+00  8.1622680583977E-01 -1.2412790796564E-01
31  3.0000000000000E-01  1.5726001414109E+00  8.4145055722460E-01 -1.9031771040591E-01
32  3.1000000000000E-01  1.5276565776047E+00  8.6632750002803E-01 -2.5641804924195E-01
33  3.2000000000000E-01  1.4774646999133E+00  8.9083393926016E-01 -3.2188721245415E-01
34  3.3000000000000E-01  1.4223510124588E+00  9.1494472115837E-01 -3.8621097679981E-01
35  3.4000000000000E-01  1.3626555641766E+00  9.3863327188202E-01 -4.4890761449814E-01
36  3.5000000000000E-01  1.2987295896410E+00  9.6187165837564E-01 -5.0953212151657E-01
37  3.6000000000000E-01  1.2309332342787E+00  9.8463067138542E-01 -5.6767962344625E-01
38  3.7000000000000E-01  1.1596333799599E+00  1.0068799302474E+00 -6.2298793172025E-01
39  3.8000000000000E-01  1.0852015838848E+00  1.0285880087026E+00 -6.7513923985938E-01
40  3.9000000000000E-01  1.0080121405633E+00  1.0497225806413E+00 -7.2386096621522E-01
41  4.0000000000000E-01  9.2844027358975E-01  1.0702505843427E+00 -7.6892576597396E-01
42  4.1000000000000E-01  8.4686046089212E-01  1.0901384034653E+00 -8.1015075069284E-01
43  4.2000000000000E-01  7.6364489426009E-01  1.1093520627553E+00 -8.4739596804689E-01
44  4.3000000000000E-01  6.7916207126683E-01  1.1278574361969E+00 -8.8056220753429E-01
45  4.4000000000000E-01  5.9377551525832E-01  1.1456204651119E+00 -9.0958820934886E-01
46  4.5000000000000E-01  5.0784261692464E-01  1.1626073835521E+00 -9.3444736330242E-01
47  4.6000000000000E-01  4.2171358912696E-01  1.1787849482030E+00 -9.5514399240055E-01
48  4.7000000000000E-01  3.3573052516174E-01  1.1941206699432E+00 -9.7170932131103E-01
49  4.8000000000000E-01  2.5022654951645E-01  1.2085830441776E+00 -9.8419723344253E-01
50  4.9000000000000E-01  1.6552504942081E-01  1.2221417770841E+00 -9.9267992164051E-01
51  5.0000000000000E-01  8.1938975125302E-02  1.2347680049860E+00 -9.9724353661382E-01
52  5.1000000000000E-01 -2.2980315846916E-04  1.2464345041774E+00 -9.9798393417747E-01
53  5.2000000000000E-01 -8.0691093362339E-02  1.2571158886922E+00 -9.9500261734905E-01
54  5.3000000000000E-01 -1.5916694571828E-01  1.2667887937073E+00 -9.8840296237271E-01
55  5.4000000000000E-01 -2.3539219297041E-01  1.2754320425114E+00 -9.7828680907686E-01
56  5.5000000000000E-01 -3.0911497536447E-01  1.2830267952384E+00 -9.6475148576595E-01
57  5.6000000000000E-01 -3.8009725762468E-01  1.2895566778637E+00 -9.4788732736051E-01
58  5.7000000000000E-01 -4.4811534342638E-01  1.2950078902782E+00 -9.2777573297932E-01
59  5.8000000000000E-01 -5.1296039103174E-01  1.2993692925874E+00 -9.0448779587627E-01
60  5.9000000000000E-01 -5.7443893182446E-01  1.3026324691240E+00 -8.7808352488532E-01
61  6.0000000000000E-01 -6.3237339151092E-01  1.3047917700052E+00 -8.4861166258876E-01
62  6.1000000000000E-01 -6.8660261179976E-01  1.3058443304043E+00 -8.1611009158020E-01
63  6.2000000000000E-01 -7.3698236848181E-01  1.3057900680348E+00 -7.8060680674977E-01
64  6.3000000000000E-01 -7.8338588005497E-01  1.3046316596564E+00 -7.4212141872902E-01
65  6.4000000000000E-01 -8.2570429942116E-01  1.3023744977024E+00 -7.0066714176846E-01
66  6.5000000000000E-01 -8.6384717976211E-01  1.2990266283913E+00 -6.5625320859586E-01
67  6.6000000000000E-01 -8.9774290452105E-01  1.2945986729163E+00 -6.0888764545287E-01
68  6.7000000000000E-01 -9.2733907049994E-01  1.2891037335049E+00 -5.5858033267705E-01
69  6.8000000000000E-01 -9.5260281246004E-01  1.2825572862972E+00 -5.0534627006098E-01
70  6.9000000000000E-01 -9.7352105729692E-01  1.2749770631111E+00 -4.4920896185497E-01
71  7.0000000000000E-01 -9.9010069586626E-01  1.2663829242413E+00 -3.9020383378696E-01
72  7.1000000000000E-01 -1.0023686608644E+00  1.2567967244696E+00 -3.2838159386171E-01
73  7.2000000000000E-01 -1.0103718998108E+00  1.2462421744607E+00 -2.6381144996212E-01
74  7.3000000000000E-01 -1.0141772331369E+00  1.2347446996670E+00 -1.9658410039318E-01
75  7.4000000000000E-01 -1.0138710886229E+00  1.2223312987815E+00 -1.2681441834882E-01
76  7.5000000000000E-01 -1.0095591049386E+00  1.2090304036501E+00 -5.4643757783765E-02
77  7.6000000000000E-01 -1.0013655987800E+00  1.1948717424042E+00  1.9758183863273E-02
78  7.7000000000000E-01 -9.8943289204357E-01  1.1798862073837E+00  9.6192001357939E-02
79  7.8000000000000E-01 -9.7392049757712E-01  1.1641057292125E+00  1.7442776065737E-01
80  7.9000000000000E-01 -9.5500416426829E-01  1.1475631581599E+00  2.5420475480909E-01
81  8.0000000000000E-01 -9.3287478452272E-01  1.1302921536728E+00  3.3523185846905E-01
82  8.1000000000000E-01 -9.0773716949698E-01  1.1123270827133E+00  4.1718849043857E-01
83  8.2000000000000E-01 -8.7980869974158E-01  1.0937029272751E+00  4.9972618117956E-01
84  8.3000000000000E-01 -8.4931786112741E-01  1.0744552011985E+00  5.8247072993097E-01
85  8.4000000000000E-01 -8.1650267802764E-01  1.0546198761514E+00  6.6502492408914E-01
86  8.5000000000000E-01 -7.8160905766453E-01  1.0342333164092E+00  7.4697178214541E-01
87  8.6000000000000E-01 -7.4488906126422E-01  1.0133322218444E+00  8.2787827094226E-01
88  8.7000000000000E-01 -7.0659911915724E-01  9.9195357833692E-01  9.0729943850326E-01
89  8.8000000000000E-01 -6.6699820818399E-01  9.7013461464456E-01  9.8478289541377E-01
90  8.9000000000000E-01 -6.2634601069060E-01  9.4791276462543E-01  1.0598735708079E+00
91  9.0000000000000E-01 -5.8490107500503E-01  9.2532563359036E-01  1.1321186636153E+00
92  9.1000000000000E-01 -5.4291899755756E-01  9.0241096748291E-01  1.2010727059011E+00
93  9.2000000000000E-01 -5.0065064674222E-01  8.7920662353748E-01  1.2663026529813E+00
94  9.3000000000000E-01 -4.5834044820792E-01  8.5575054105439E-01  1.3273929145268E+00
95  9.4000000000000E-01 -4.1622475052416E-01  8.3208071095478E-01  1.3839502420913E+00
96  9.5000000000000E-01 -3.7453028910053E-01  8.0823514283498E-01  1.4356083913546E+00
97  9.6000000000000E-01 -3.3347276486814E-01  7.8425182833024E-01  1.4820324818143E+00
98  9.7000000000000E-01 -2.9325555258271E-01  7.6016869971763E-01  1.5229229825585E+00
99  9.8000000000000E-01 -2.5406855170891E-01  7.3602358283542E-01  1.5580192600017E+00
100  9.9000000000000E-01 -2.1608719073293E-01  7.1185414356730E-01  1.5871026318958E+00
101  1.0000000000000E+00 -1.7947159346169E-01  6.8769782733170E-01  1.6099988813583E+00
102  1.0100000000000E+00 -1.4436591344513E-01  6.6359179122308E-01  1.6265801949020E+00
103  1.0200000000000E+00 -1.1089784014645E-01  6.3957282867119E-01  1.6367664992958E+00
104  1.0300000000000E+00 -7.9178277934923E-02  6.1567728670878E-01  1.6405261832826E+00
105  1.0400000000000E+00 -4.9301196425713E-02  5.9194097616494E-01  1.6378762015550E+00
106  1.0500000000000E+00 -2.1343648195864E-02  5.6839907532456E-01  1.6288815696583E+00
107  1.0600000000000E+00  4.6340524932174E-03  5.4508602780933E-01  1.6136542694597E+00
108  1.0700000000000E+00  2.8587998594792E-02  5.2203543563796E-01  1.5923515952707E+00
109  1.0800000000000E+00  5.0490217503025E-02  4.9927994860830E-01  1.5651739804253E+00
110  1.0900000000000E+00  7.0328069166601E-02  4.7685115130772E-01  1.5323623529008E+00
111  1.1000000000000E+00  8.8103529257749E-02  4.5477944919678E-01  1.4941950762781E+00
112  1.1100000000000E+00  1.0383237288628E-01  4.3309395532186E-01  1.4509845387826E+00
113  1.1200000000000E+00  1.1754327536941E-01  4.1182237929213E-01  1.4030734582410E+00
114  1.1300000000000E+00  1.2927684726593E-01  3.9099092020329E-01  1.3508309744040E+00
115  1.1400000000000E+00  1.3908462124777E-01  3.7062416520292E-01  1.2946486021648E+00
116  1.1500000000000E+00  1.4702800840878E-01  3.5074499537005E-01  1.2349361197059E+00
117  1.1600000000000E+00  1.5317724129439E-01  3.3137450052333E-01  1.1721174644996E+00
118  1.1700000000000E+00  1.5761032029397E-01  3.1253190447990E-01  1.1066267074351E+00
119  1.1800000000000E+00  1.6041197906409E-01  2.9423450215982E-01  1.0389041711034E+00
120  1.1900000000000E+00  1.6167268338579E-01  2.7649760977263E-01  9.6939275263033E-01
121  1.2000000000000E+00  1.6148767629951E-01  2.5933452913323E-01  8.9853450437480E-01
122  1.2100000000000E+00  1.5995608055510E-01  2.4275652693812E-01  8.2676751752186E-01
123  1.2200000000000E+00  1.5718006737992E-01  2.2677282959249E-01  7.5452314419002E-01
124  1.2300000000000E+00  1.5326409833473E-01  2.1139063391637E-01  6.8222358326020E-01
125  1.2400000000000E+00  1.4831424465442E-01  1.9661513378083E-01  6.1027984400676E-01
126  1.2500000000000E+00  1.4243758595501E-01  1.8244956243176E-01  5.3909008974946E-01
127  1.2600000000000E+00  1.3574168761394E-01  1.6889524995926E-01  4.6903835154475E-01
128  1.2700000000000E+00  1.2833415350509E-01  1.5595169506492E-01  4.0049358943745E-01
129  1.2800000000000E+00  1.2032224813534E-01  1.4361664997251E-01  3.3380906619861E-01
130  1.2900000000000E+00  1.1181257964032E-01  1.3188621702584E-01  2.6932198604539E-01
131  1.3000000000000E+00  1.0291083257118E-01  1.2075495522232E-01  2.0735333866978E-01
132  1.3100000000000E+00  9.3721536973108E-02  1.1021599464638E-01  1.4820787714024E-01
133  1.3200000000000E+00  8.4347857966354E-02  1.0026115649806E-01  9.2174147120873E-02
134  1.3300000000000E+00  7.4891387909299E-02  9.0881076161497E-02  3.9524474465809E-02
135  1.3400000000000E+00  6.5451921257714E-02  8.2065326526204E-02 -9.4851913705841E-03
136  1.3500000000000E+00  5.6127190484565E-02  7.3802538566990E-02 -5.4615689259499E-02
137  1.3600000000000E+00  4.7012539880412E-02  6.6080516005815E-02 -9.5645432425560E-02
138  1.3700000000000E+00  3.8200512737213E-02  5.8886340722549E-02 -1.3237169386045E-01
139  1.3800000000000E+00  2.9780326325207E-02  5.2206465452545E-02 -1.6461252183920E-01
140  1.3900000000000E+00  2.1837208221330E-02  4.6026790208909E-02 -1.9220942049919E-01
141  1.4000000000000E+00  1.4451566918875E-02  4.0332718794906E-02 -2.1503093359019E-01
142  1.4100000000000E+00  7.6979692488527E-03  3.5109191728002E-02 -2.3297727150902E-01
143  1.4200000000000E+00  1.6438969576746E-03  3.0340691880515E-02 -2.4598612266256E-01
144  1.4300000000000E+00 -3.6517451908753E-03  2.6011219152137E-02 -2.5403979007466E-01
145  1.4400000000000E+00 -8.1403972117517E-03  2.2104230525051E-02 -2.5717379306895E-01
146  1.4500000000000E+00 -1.1785914623012E-02  1.8602541912232E-02 -2.5548707182628E-01
147  1.4600000000000E+00 -1.4566968586048E-02  1.5488188290738E-02 -2.4915392979658E-01
148  1.4700000000000E+00 -1.6479801256697E-02  1.2742238714462E-02 -2.3843784532220E-01
149  1.4800000000000E+00 -1.7541363005000E-02  1.0344562733696E-02 -2.2370729059006E-01
150  1.4900000000000E+00 -1.7792851092416E-02  8.2735455712569E-03 -2.0545364978872E-01
151  1.5000000000000E+00 -1.7303643270945E-02  6.5057526011785E-03 -1.8431117272791E-01
152  1.5100000000000E+00 -1.6174801909171E-02  5.0156330725499E-03 -1.6107341515108E-01
153  1.5200000000000E+00 -1.4529627318307E-02  3.7766830847765E-03 -1.3662503007697E-01
154  1.5300000000000E+00 -1.2513759888154E-02  2.7607120537124E-03 -1.1190743028372E-01
155  1.5400000000000E+00 -1.0286617425341E-02  1.9390578025445E-03 -8.7878460209753E-02
156  1.5500000000000E+00 -7.9717812743833E-03  1.2912625635579E-03 -6.5300925242209E-02
157  1.5600000000000E+00 -5.7027282011894E-03  7.9758658272767E-04 -4.4932185866608E-02
158  1.5700000000000E+00 -3.6213959971828E-03  4.3916799557732E-04 -2.7517966032502E-02
159  1.5800000000000E+00 -1.8781083941608E-03  1.9818843205769E-04 -1.3794259111281E-02
160  1.5900000000000E+00 -6.2063052780933E-04  5.7299317990065E-05 -4.4169172133222E-03
161  1.6000000000000E+00 -4.5727166511178E-05  3.6611466586115E-06 -3.1494586815842E-04
162  1.6100000000000E+00  9.6380937591228E-06 -7.1654186332442E-07  6.5477073265993E-05
163  1.6200000000000E+00 -2.9146516434427E-06  2.3326306774861E-07 -2.0113644121325E-05
164  1.63  0. -0.  0.
165  1.64 -0. -0. -0.
166  1.65  0.  0.  0.
167  1.66  0.  0.  0.
168  1.67  0.  0.  0.
169  1.68  0.  0.  0.
170  1.69  0.  0.  0.
171  1.70  0.  0.  0.
172  1.71  0.  0.  0.
173  1.72  0.  0.  0.
174  1.73  0.  0.  0.
175  1.74  0.  0.  0.
176  1.75  0.  0.  0.
177  1.76  0.  0.  0.
178  1.77  0.  0.  0.
179  1.78  0.  0.  0.
180  1.79  0.  0.  0.
181  1.80  0.  0.  0.
182  1.81  0.  0.  0.
183  1.82  0.  0.  0.
184  1.83  0.  0.  0.
185  1.84  0.  0.  0.
186  1.85  0.  0.  0.
187  1.86  0.  0.  0.
188  1.87  0.  0.  0.
189  1.88  0.  0.  0.
190  1.89  0.  0.  0.
191  1.90  0.  0.  0.
192  1.91  0.  0.  0.
193  1.92  0.  0.  0.
194  1.93  0.  0.  0.
195  1.94  0.  0.  0.
196  1.95  0.  0.  0.
197  1.96  0.  0.  0.
198  1.97  0.  0.  0.
199  1.98  0.  0.  0.
200  1.99  0.  0.  0.
201  2.00  0.  0.  0.
202  2.01  0.  0.  0.
203  2.02  0.  0.  0.
204  2.03  0.  0.  0.
205  2.04  0.  0.  0.
206  2.05  0.  0.  0.
207  2.06  0.  0.  0.
208  2.07  0.  0.  0.
209  2.08  0.  0.  0.
210  2.09  0.  0.  0.
211  2.10  0.  0.  0.
212  2.11  0.  0.  0.
213  2.12  0.  0.  0.
214  2.13  0.  0.  0.
215  2.14  0.  0.  0.
216  2.15  0.  0.  0.
217  2.16  0.  0.  0.
218  2.17  0.  0.  0.
219  2.18  0.  0.  0.
220  2.19  0.  0.  0.
221  2.20  0.  0.  0.
222  2.21  0.  0.  0.
223  2.22  0.  0.  0.
224  2.23  0.  0.  0.
225  2.24  0.  0.  0.
226  2.25  0.  0.  0.
227  2.26  0.  0.  0.
228  2.27  0.  0.  0.
229  2.28  0.  0.  0.
230  2.29  0.  0.  0.
231  2.30  0.  0.  0.
232  2.31  0.  0.  0.
233  2.32  0.  0.  0.
234  2.33  0.  0.  0.
235  2.34  0.  0.  0.
236  2.35  0.  0.  0.
237  2.36  0.  0.  0.
238  2.37  0.  0.  0.
239  2.38  0.  0.  0.
240  2.39  0.  0.  0.
241  2.40  0.  0.  0.
242  2.41  0.  0.  0.
243  2.42  0.  0.  0.
244  2.43  0.  0.  0.
245  2.44  0.  0.  0.
246  2.45  0.  0.  0.
247  2.46  0.  0.  0.
248  2.47  0.  0.  0.
249  2.48  0.  0.  0.
250  2.49  0.  0.  0.
251  2.50  0.  0.  0.
252  2.51  0.  0.  0.
253  2.52  0.  0.  0.
254  2.53  0.  0.  0.
255  2.54  0.  0.  0.
256  2.55  0.  0.  0.
257  2.56  0.  0.  0.
258  2.57  0.  0.  0.
259  2.58  0.  0.  0.
260  2.59  0.  0.  0.
261  2.60  0.  0.  0.
262  2.61  0.  0.  0.
263  2.62  0.  0.  0.
264  2.63  0.  0.  0.
265  2.64  0.  0.  0.
266  2.65  0.  0.  0.
267  2.66  0.  0.  0.
268  2.67  0.  0.  0.
269  2.68  0.  0.  0.
270  2.69  0.  0.  0.
271  2.70  0.  0.  0.
272  2.71  0.  0.  0.
273  2.72  0.  0.  0.
274  2.73  0.  0.  0.
275  2.74  0.  0.  0.
276  2.75  0.  0.  0.
277  2.76  0.  0.  0.
278  2.77  0.  0.  0.
279  2.78  0.  0.  0.
280  2.79  0.  0.  0.
281  2.80  0.  0.  0.
282  2.81  0.  0.  0.
283  2.82  0.  0.  0.
284  2.83  0.  0.  0.
285  2.84  0.  0.  0.
286  2.85  0.  0.  0.
287  2.86  0.  0.  0.
288  2.87  0.  0.  0.
289  2.88  0.  0.  0.
290  2.89  0.  0.  0.
291  2.90  0.  0.  0.
292  2.91  0.  0.  0.
293  2.92  0.  0.  0.
294  2.93  0.  0.  0.
295  2.94  0.  0.  0.
296  2.95  0.  0.  0.
297  2.96  0.  0.  0.
298  2.97  0.  0.  0.
299  2.98  0.  0.  0.
300  2.99  0.  0.  0.
301  3.00  0.  0.  0.
302  3.01  0.  0.  0.
303  3.02  0.  0.  0.
304  3.03  0.  0.  0.
305  3.04  0.  0.  0.
306  3.05  0.  0.  0.
307  3.06  0.  0.  0.
308  3.07  0.  0.  0.
309  3.08  0.  0.  0.
310  3.09  0.  0.  0.
311  3.10  0.  0.  0.
312  3.11  0.  0.  0.
313  3.12  0.  0.  0.
314  3.13  0.  0.  0.
315  3.14  0.  0.  0.
316  3.15  0.  0.  0.
317  3.16  0.  0.  0.
318  3.17  0.  0.  0.
319  3.18  0.  0.  0.
320  3.19  0.  0.  0.
321  3.20  0.  0.  0.
322  3.21  0.  0.  0.
323  3.22  0.  0.  0.
324  3.23  0.  0.  0.
325  3.24  0.  0.  0.
326  3.25  0.  0.  0.
327  3.26  0.  0.  0.
328  3.27  0.  0.  0.
329  3.28  0.  0.  0.
330  3.29  0.  0.  0.
331  3.30  0.  0.  0.
332  3.31  0.  0.  0.
333  3.32  0.  0.  0.
334  3.33  0.  0.  0.
335  3.34  0.  0.  0.
336  3.35  0.  0.  0.
337  3.36  0.  0.  0.
338  3.37  0.  0.  0.
339  3.38  0.  0.  0.
340  3.39  0.  0.  0.
341  3.40  0.  0.  0.
342  3.41  0.  0.  0.
343  3.42  0.  0.  0.
344  3.43  0.  0.  0.
345  3.44  0.  0.  0.
346  3.45  0.  0.  0.
347  3.46  0.  0.  0.
348  3.47  0.  0.  0.
349  3.48  0.  0.  0.
350  3.49  0.  0.  0.
351  3.50  0.  0.  0.
352  3.51  0.  0.  0.
353  3.52  0.  0.  0.
354  3.53  0.  0.  0.
355  3.54  0.  0.  0.
356  3.55  0.  0.  0.
357  3.56  0.  0.  0.
358  3.57  0.  0.  0.
359  3.58  0.  0.  0.
360  3.59  0.  0.  0.
361  3.60  0.  0.  0.
362  3.61  0.  0.  0.
363  3.62  0.  0.  0.
364  3.63  0.  0.  0.
365  3.64  0.  0.  0.
366  3.65  0.  0.  0.
367  3.66  0.  0.  0.
368  3.67  0.  0.  0.
369  3.68  0.  0.  0.
370  3.69  0.  0.  0.
371  3.70  0.  0.  0.
372  3.71  0.  0.  0.
373  3.72  0.  0.  0.
374  3.73  0.  0.  0.
375  3.74  0.  0.  0.
376  3.75  0.  0.  0.
377  3.76  0.  0.  0.
378  3.77  0.  0.  0.
379  3.78  0.  0.  0.
380  3.79  0.  0.  0.
381  3.80  0.  0.  0.
382  3.81  0.  0.  0.
383  3.82  0.  0.  0.
384  3.83  0.  0.  0.
385  3.84  0.  0.  0.
386  3.85  0.  0.  0.
387  3.86  0.  0.  0.
388  3.87  0.  0.  0.
389  3.88  0.  0.  0.
390  3.89  0.  0.  0.
391  3.90  0.  0.  0.
392  3.91  0.  0.  0.
393  3.92  0.  0.  0.
394  3.93  0.  0.  0.
395  3.94  0.  0.  0.
396  3.95  0.  0.  0.
397  3.96  0.  0.  0.
398  3.97  0.  0.  0.
399  3.98  0.  0.  0.
400  3.99  0.  0.  0.
401  4.00  0.  0.  0.
402  4.01  0.  0.  0.
403  4.02  0.  0.  0.
404  4.03  0.  0.  0.
405  4.04  0.  0.  0.
406  4.05  0.  0.  0.
407  4.06  0.  0.  0.
408  4.07  0.  0.  0.
409  4.08  0.  0.  0.
410  4.09  0.  0.  0.
411  4.10  0.  0.  0.
412  4.11  0.  0.  0.
413  4.12  0.  0.  0.
414  4.13  0.  0.  0.
415  4.14  0.  0.  0.
416  4.15  0.  0.  0.
417  4.16  0.  0.  0.
418  4.17  0.  0.  0.
419  4.18  0.  0.  0.
420  4.19  0.  0.  0.
421  4.20  0.  0.  0.
422  4.21  0.  0.  0.
423  4.22  0.  0.  0.
424  4.23  0.  0.  0.
425  4.24  0.  0.  0.
426  4.25  0.  0.  0.
427  4.26  0.  0.  0.
428  4.27  0.  0.  0.
429  4.28  0.  0.  0.
430  4.29  0.  0.  0.
431  4.30  0.  0.  0.
432  4.31  0.  0.  0.
433  4.32  0.  0.  0.
434  4.33  0.  0.  0.
435  4.34  0.  0.  0.
436  4.35  0.  0.  0.
437  4.36  0.  0.  0.
438  4.37  0.  0.  0.
439  4.38  0.  0.  0.
440  4.39  0.  0.  0.
441  4.40  0.  0.  0.
442  4.41  0.  0.  0.
443  4.42  0.  0.  0.
444  4.43  0.  0.  0.
445  4.44  0.  0.  0.
446  4.45  0.  0.  0.
447  4.46  0.  0.  0.
448  4.47  0.  0.  0.
449  4.48  0.  0.  0.
450  4.49  0.  0.  0.
451  4.50  0.  0.  0.
452  4.51  0.  0.  0.
453  4.52  0.  0.  0.
454  4.53  0.  0.  0.
455  4.54  0.  0.  0.
456  4.55  0.  0.  0.
457  4.56  0.  0.  0.
458  4.57  0.  0.  0.
459  4.58  0.  0.  0.
460  4.59  0.  0.  0.
461  4.60  0.  0.  0.
462  4.61  0.  0.  0.
463  4.62  0.  0.  0.
464  4.63  0.  0.  0.
465  4.64  0.  0.  0.
466  4.65  0.  0.  0.
467  4.66  0.  0.  0.
468  4.67  0.  0.  0.
469  4.68  0.  0.  0.
470  4.69  0.  0.  0.
471  4.70  0.  0.  0.
472  4.71  0.  0.  0.
473  4.72  0.  0.  0.
474  4.73  0.  0.  0.
475  4.74  0.  0.  0.
476  4.75  0.  0.  0.
477  4.76  0.  0.  0.
478  4.77  0.  0.  0.
479  4.78  0.  0.  0.
480  4.79  0.  0.  0.
481  4.80  0.  0.  0.
482  4.81  0.  0.  0.
483  4.82  0.  0.  0.
484  4.83  0.  0.  0.
485  4.84  0.  0.  0.
486  4.85  0.  0.  0.
487  4.86  0.  0.  0.
488  4.87  0.  0.  0.
489  4.88  0.  0.  0.
490  4.89  0.  0.  0.
491  4.90  0.  0.  0.
492  4.91  0.  0.  0.
493  4.92  0.  0.  0.
494  4.93  0.  0.  0.
495  4.94  0.  0.  0.
496  4.95  0.  0.  0.
497  4.96  0.  0.  0.
498  4.97  0.  0.  0.
499  4.98  0.  0.  0.
500  4.99  0.  0.  0.
501  5.00  0.  0.  0.
502  5.01  0.  0.  0.
503  5.02  0.  0.  0.
504  5.03  0.  0.  0.
505  5.04  0.  0.  0.
506  5.05  0.  0.  0.
507  5.06  0.  0.  0.
508  5.07  0.  0.  0.
509  5.08  0.  0.  0.
510  5.09  0.  0.  0.
511  5.10  0.  0.  0.
512  5.11  0.  0.  0.
513  5.12  0.  0.  0.
514  5.13  0.  0.  0.
515  5.14  0.  0.  0.
516  5.15  0.  0.  0.
517  5.16  0.  0.  0.
518  5.17  0.  0.  0.
519  5.18  0.  0.  0.
520  5.19  0.  0.  0.
521  5.20  0.  0.  0.
522  5.21  0.  0.  0.
523  5.22  0.  0.  0.
524  5.23  0.  0.  0.
525  5.24  0.  0.  0.
526  5.25  0.  0.  0.
527  5.26  0.  0.  0.
528  5.27  0.  0.  0.
529  5.28  0.  0.  0.
530  5.29  0.  0.  0.
531  5.30  0.  0.  0.
532  5.31  0.  0.  0.
533  5.32  0.  0.  0.
534  5.33  0.  0.  0.
535  5.34  0.  0.  0.
536  5.35  0.  0.  0.
537  5.36  0.  0.  0.
538  5.37  0.  0.  0.
539  5.38  0.  0.  0.
540  5.39  0.  0.  0.
541  5.40  0.  0.  0.
542  5.41  0.  0.  0.
543  5.42  0.  0.  0.
544  5.43  0.  0.  0.
545  5.44  0.  0.  0.
546  5.45  0.  0.  0.
547  5.46  0.  0.  0.
548  5.47  0.  0.  0.
549  5.48  0.  0.  0.
550  5.49  0.  0.  0.
551  5.50  0.  0.  0.
552  5.51  0.  0.  0.
553  5.52  0.  0.  0.
554  5.53  0.  0.  0.
555  5.54  0.  0.  0.
556  5.55  0.  0.  0.
557  5.56  0.  0.  0.
558  5.57  0.  0.  0.
559  5.58  0.  0.  0.
560  5.59  0.  0.  0.
561  5.60  0.  0.  0.
562  5.61  0.  0.  0.
563  5.62  0.  0.  0.
564  5.63  0.  0.  0.
565  5.64  0.  0.  0.
566  5.65  0.  0.  0.
567  5.66  0.  0.  0.
568  5.67  0.  0.  0.
569  5.68  0.  0.  0.
570  5.69  0.  0.  0.
571  5.70  0.  0.  0.
572  5.71  0.  0.  0.
573  5.72  0.  0.  0.
574  5.73  0.  0.  0.
575  5.74  0.  0.  0.
576  5.75  0.  0.  0.
577  5.76  0.  0.  0.
578  5.77  0.  0.  0.
579  5.78  0.  0.  0.
580  5.79  0.  0.  0.
581  5.80  0.  0.  0.
582  5.81  0.  0.  0.
583  5.82  0.  0.  0.
584  5.83  0.  0.  0.
585  5.84  0.  0.  0.
586  5.85  0.  0.  0.
587  5.86  0.  0.  0.
588  5.87  0.  0.  0.
589  5.88  0.  0.  0.
590  5.89  0.  0.  0.
591  5.90  0.  0.  0.
592  5.91  0.  0.  0.
593  5.92  0.  0.  0.
594  5.93  0.  0.  0.
595  5.94  0.  0.  0.
596  5.95  0.  0.  0.
597  5.96  0.  0.  0.
598  5.97  0.  0.  0.
599  5.98  0.  0.  0.
600  5.99  0.  0.  0.
1                        -3.5271978041976E+00  1.9995260459605E+00
1  0.0000000000000E+00  3.0940568163107E-10 -1.6682416281721E-09
2  1.0000000000000E-02  9.2893638991685E-04  2.2318487904852E-03
3  2.0000000000000E-02  3.7129249100094E-03  8.9152748443776E-03
4  3.0000000000000E-02  8.3435184497820E-03  2.0013935885167E-02
5  4.0000000000000E-02  1.4806687772618E-02  3.5467324788295E-02
6  5.0000000000000E-02  2.3082894807845E-02  5.5190868342950E-02
7  6.0000000000000E-02  3.3147194013097E-02  7.9076072918792E-02
8  7.0000000000000E-02  4.4969360588057E-02  1.0699072417371E-01
9  8.0000000000000E-02  5.8514044011291E-02  1.3877914960699E-01
10  9.0000000000000E-02  7.3740945090480E-02  1.7426255416427E-01
11  1.0000000000000E-01  9.0605014468175E-02  2.1323944018926E-01
12  1.1000000000000E-01  1.0905667031441E-01  2.5548612375413E-01
13  1.2000000000000E-01  1.2904203276806E-01  3.0075735975165E-01
14  1.3000000000000E-01  1.5050317256298E-01  3.4878708807907E-01
15  1.4000000000000E-01  1.7337837119567E-01  3.9928931276817E-01
16  1.5000000000000E-01  1.9760238995784E-01  4.5195912501834E-01
17  1.6000000000000E-01  2.2310674517207E-01  5.0647387977413E-01
18  1.7000000000000E-01  2.4981998702833E-01  5.6249453377244E-01
19  1.8000000000000E-01  2.7766797952455E-01  6.1966715089238E-01
20  1.9000000000000E-01  3.0657417915969E-01  6.7762457821005E-01
21  2.0000000000000E-01  3.3645991021316E-01  7.3598829343079E-01
22  2.1000000000000E-01  3.6724463466179E-01  7.9437042139781E-01
23  2.2000000000000E-01  3.9884621503339E-01  8.5237591421403E-01
24  2.3000000000000E-01  4.3118116876638E-01  9.0960488622704E-01
25  2.4000000000000E-01  4.6416491293323E-01  9.6565509178329E-01
26  2.5000000000000E-01  4.9771199848487E-01  1.0201245303273E+00
27  2.6000000000000E-01  5.3173633347777E-01  1.0726141601755E+00
28  2.7000000000000E-01  5.6615139504767E-01  1.1227306992065E+00
29  2.8000000000000E-01  6.0087043018829E-01  1.1700894878440E+00
30  2.9000000000000E-01  6.3580664567345E-01  1.2143173871447E+00
31  3.0000000000000E-01  6.7087338772006E-01  1.2550556825851E+00
32  3.1000000000000E-01  7.0598431222316E-01  1.2919629623450E+00
33  3.2000000000000E-01  7.4105354659663E-01  1.3247179375466E+00
34  3.3000000000000E-01  7.7599584442069E-01  1.3530221710730E+00
35  3.4000000000000E-01  8.1072673422613E-01  1.3766026812944E+00
36  3.5000000000000E-01  8.4516266383253E-01  1.3952143872878E+00
37  3.6000000000000E-01  8.7922114170221E-01  1.4086423629710E+00
38  3.7000000000000E-01  9.1282087677169E-01  1.4167038689706E+00
39  3.8000000000000E-01  9.4588191817897E-01  1.4192501330106E+00
40  3.9000000000000E-01  9.7832579621801E-01  1.4161678521115E+00
41  4.0000000000000E-01  1.0100756657241E+00  1.4073803929054E+00
42  4.1000000000000E-01  1.0410564529283E+00  1.3928486698529E+00
43  4.2000000000000E-01  1.0711950066170E+00  1.3725716850441E+00
44  4.3000000000000E-01  1.1004202542047E+00  1.3465867175227E+00
45  4.4000000000000E-01  1.1286633630688E+00  1.3149691546095E+00
46  4.5000000000000E-01  1.1558579072224E+00  1.2778319624608E+00
47  4.6000000000000E-01  1.1819400391114E+00  1.2353247979872E+00
48  4.7000000000000E-01  1.2068486660261E+00  1.1876327692030E+00
49  4.8000000000000E-01  1.2305256303233E+00  1.1349748559876E+00
50  4.9000000000000E-01  1.2529158923619E+00  1.0776020080361E+00
51  5.0000000000000E-01  1.2739677147843E+00  1.0157949413695E+00
52  5.1000000000000E-01  1.2936328465122E+00  9.4986165908427E-01
53  5.2000000000000E-01  1.3118667046008E+00  8.8013472597479E-01
54  5.3000000000000E-01  1.3286285518906E+00  8.0696833017735E-01
55  5.4000000000000E-01  1.3438816682365E+00  7.3073516801193E-01
56  5.5000000000000E-01  1.3575935129686E+00  6.5182319066636E-01
57  5.6000000000000E-01  1.3697358761636E+00  5.7063225324266E-01
58  5.7000000000000E-01  1.3802850162720E+00  4.8757070792285E-01
59  5.8000000000000E-01  1.3892217816692E+00  4.0305198359077E-01
60  5.9000000000000E-01  1.3965317137611E+00  3.1749119415140E-01
61  6.0000000000000E-01  1.4022051294000E+00  2.3130181702109E-01
62  6.1000000000000E-01  1.4062371805265E+00  1.4489248182824E-01
63  6.2000000000000E-01  1.4086278891733E+00  5.8663907290007E-02
64  6.3000000000000E-01  1.4093821562194E+00 -2.6993978451218E-02
65  6.4000000000000E-01  1.4085097425837E+00 -1.1170470199066E-01
66  6.5000000000000E-01  1.4060252218759E+00 -1.9510766503343E-01
67  6.6000000000000E-01  1.4019479038871E+00 -2.7686029687601E-01
68  6.7000000000000E-01  1.3963017286847E+00 -3.5663991945844E-01
69  6.8000000000000E-01  1.3891151314765E+00 -4.3414531029484E-01
70  6.9000000000000E-01  1.3804208788219E+00 -5.0909795364349E-01
71  7.0000000000000E-01  1.3702558771775E+00 -5.8124297544159E-01
72  7.1000000000000E-01  1.3586609551694E+00 -6.5034976271835E-01
73  7.2000000000000E-01  1.3456806213804E+00 -7.1621227331791E-01
74  7.3000000000000E-01  1.3313627998094E+00 -7.7864904672064E-01
75  7.4000000000000E-01  1.3157585455038E+00 -8.3750293145942E-01
76  7.5000000000000E-01  1.2989217431766E+00 -8.9264054900154E-01
77  7.6000000000000E-01  1.2809087918856E+00 -9.4395151793103E-01
78  7.7000000000000E-01  1.2617782790747E+00 -9.9134746574652E-01
79  7.8000000000000E-01  1.2415906474479E+00 -1.0347608585278E+00
80  7.9000000000000E-01  1.2204078582607E+00 -1.0741436810653E+00
81  8.0000000000000E-01  1.1982930546722E+00 -1.1094660017504E+00
82  8.1000000000000E-01  1.1753102287998E+00 -1.1407144575637E+00
83  8.2000000000000E-01  1.1515238960535E+00 -1.1678906948497E+00
84  8.3000000000000E-01  1.1269987802077E+00 -1.1910098012343E+00
85  8.4000000000000E-01  1.1017995124867E+00 -1.2100987630252E+00
86  8.5000000000000E-01  1.0759903477013E+00 -1.2251949807641E+00