Ub    ONCVPSP-4.0.1  r_core=   1.50269   1.50269   1.50269
120.0000     28.0000      231012    zatom,zion,pspd
8   -1012   2     4   600     0    pspcod,pspxc,lmax,lloc,mmax,r2well
5.99000000  5.00000000  0.00000000    rchrg fchrg qchrg
3     3     3     0    nproj
3     1           extension_switch
3     3     0    nprojso
0                         2.0536716684689E+01 -3.4728616466673E+00 -2.5735056174364E-01
1  0.0000000000000E+00 -1.7879264735399E-09 -6.2224791985699E-10  2.5694687821876E-08
2  1.0000000000000E-02  1.3013060282350E-01  1.7417563509427E-02 -1.2044333301098E-01
3  2.0000000000000E-02  2.5961215945919E-01  3.4837446561968E-02 -2.3934824126568E-01
4  3.0000000000000E-02  3.8779995665040E-01  5.2262291471211E-02 -3.5519780646919E-01
5  4.0000000000000E-02  5.1405790859837E-01  6.9695378115412E-02 -4.6651776944364E-01
6  5.0000000000000E-02  6.3776277514588E-01  8.7140922943416E-02 -5.7189698195364E-01
7  6.0000000000000E-02  7.5830826660304E-01  1.0460435470529E-01 -6.7000682409213E-01
8  7.0000000000000E-02  8.7510899956713E-01  1.2209255989944E-01 -7.5961927338386E-01
9  8.0000000000000E-02  9.8760426987677E-01  1.3961409155031E-01 -8.3962333745862E-01
10  9.0000000000000E-02  1.0952616110203E+00  1.5717933568289E-01 -9.0903959322090E-01
11  1.0000000000000E-01  1.1975801088559E+00  1.7480063072711E-01 -9.6703261124691E-01
12  1.1000000000000E-01  1.2940934463556E+00  1.9249233604678E-01 -1.0129210838996E+00
13  1.2000000000000E-01  1.3843726552103E+00  2.1027084682516E-01 -1.0461855185541E+00
14  1.3000000000000E-01  1.4680285544834E+00  2.2815455362947E-01 -1.0664734024406E+00
15  1.4000000000000E-01  1.5447138600211E+00  2.4616374609696E-01 -1.0736017920296E+00
16  1.5000000000000E-01  1.6141249519669E+00  2.6432046131260E-01 -1.0675573266129E+00
17  1.6000000000000E-01  1.6760032914297E+00  2.8264827855878E-01 -1.0484937118421E+00
18  1.7000000000000E-01  1.7301364810722E+00  3.0117206318812E-01 -1.0167267635097E+00
19  1.8000000000000E-01  1.7763589680518E+00  3.1991766338009E-01 -9.7272714392113E-01
20  1.9000000000000E-01  1.8145523913305E+00  3.3891156446951E-01 -9.1711096197011E-01
21  2.0000000000000E-01  1.8446455788024E+00  3.5818050636242E-01 -8.5062844273784E-01
22  2.1000000000000E-01  1.8666142029448E+00  3.7775107026637E-01 -7.7415090244624E-01
23  2.2000000000000E-01  1.8804801067270E+00  3.9764924154363E-01 -6.8865628935178E-01
24  2.3000000000000E-01  1.8863103142850E+00  4.1789995593851E-01 -5.9521357025622E-01
25  2.4000000000000E-01  1.8842157433589E+00  4.3852663672489E-01 -4.9496625543306E-01
26  2.5000000000000E-01  1.8743496386704E+00  4.5955073046470E-01 -3.8911536177464E-01
27  2.6000000000000E-01  1.8569057472755E+00  4.8099124906133E-01 -2.7890211482433E-01
28  2.7000000000000E-01  1.8321162584529E+00  5.0286432563641E-01 -1.6559068519762E-01
29  2.8000000000000E-01  1.8002495318784E+00  5.2518279146052E-01 -5.0451243945800E-02
30  2.9000000000000E-01  1.7616076386896E+00  5.4795578073677E-01  6.5256394938635E-02
31  3.0000000000000E-01  1.7165237405770E+00  5.7118836948217E-01  1.8029829796315E-01
32  3.1000000000000E-01  1.6653593322583E+00  5.9488125409077E-01  2.9348088024669E-01
33  3.2000000000000E-01  1.6085013726176E+00  6.1903047440933E-01  4.0366412632408E-01
34  3.3000000000000E-01  1.5463593294499E+00  6.4362718532974E-01  5.0977340392167E-01
35  3.4000000000000E-01  1.4793621621647E+00  6.6865748002184E-01  6.1080974536229E-01
36  3.5000000000000E-01  1.4079552660013E+00  6.9410226701453E-01  7.0585850698257E-01
37  3.6000000000000E-01  1.3325974003212E+00  7.1993720240430E-01  7.9409635314430E-01
38  3.7000000000000E-01  1.2537576224079E+00  7.4613267754644E-01  8.7479654729669E-01
39  3.8000000000000E-01  1.1719122469454E+00  7.7265386168659E-01  9.4733256727897E-01
40  3.9000000000000E-01  1.0875418500009E+00  7.9946079813600E-01  1.0111800948929E+00
41  4.0000000000000E-01  1.0011283349352E+00  8.2650855180093E-01  1.0659174600366E+00
42  4.1000000000000E-01  9.1315207623150E-01  8.5374740515865E-01  1.1112246467386E+00
43  4.2000000000000E-01  8.2408915580139E-01  8.8112309914410E-01  1.1468809917697E+00
44  4.3000000000000E-01  7.3440870491330E-01  9.0857711488111E-01  1.1727617256795E+00
45  4.4000000000000E-01  6.4457036351958E-01  9.3604699176935E-01  1.1888335208182E+00
46  4.5000000000000E-01  5.5502186744577E-01  9.6346667712681E-01  1.1951492209551E+00
47  4.6000000000000E-01  4.6619677266527E-01  9.9076690239076E-01  1.1918419324008E+00
48  4.7000000000000E-01  3.7851232472172E-01  1.0178755807962E+00  1.1791186571292E+00
49  4.8000000000000E-01  2.9236748028552E-01  1.0447182214769E+00  1.1572536444334E+00
50  4.9000000000000E-01  2.0814108684058E-01  1.0712183550649E+00  1.1265816293832E+00
51  5.0000000000000E-01  1.2619022559211E-01  1.0972979660889E+00  1.0874911141423E+00
52  5.1000000000000E-01  4.6848721856986E-02  1.1228779277843E+00  1.0404178325284E+00
53  5.2000000000000E-01 -2.9574173559290E-02  1.1478784353096E+00  9.8583851954576E-01
54  5.3000000000000E-01 -1.0279492919533E-01  1.1722194338074E+00  9.2426508661621E-01
55  5.4000000000000E-01 -1.7255670182547E-01  1.1958210382330E+00  8.5623928049850E-01
56  5.5000000000000E-01 -2.3863012788021E-01  1.2186039423903E+00  7.8232788009153E-01
57  5.6000000000000E-01 -3.0081393646873E-01  1.2404898151387E+00  7.0311846115808E-01
58  5.7000000000000E-01 -3.5893538367515E-01  1.2614016822615E+00  6.1921573512689E-01
59  5.8000000000000E-01 -4.1285050841103E-01  1.2812642929879E+00  5.3123844524371E-01
60  5.9000000000000E-01 -4.6244421073954E-01  1.3000044706362E+00  4.3981678200388E-01
61  6.0000000000000E-01 -5.0763015425503E-01  1.3175514472708E+00  3.4559026062551E-01
62  6.1000000000000E-01 -5.4835049481443E-01  1.3338371826341E+00  2.4920598678406E-01
63  6.2000000000000E-01 -5.8457543868033E-01  1.3487966679201E+00  1.5131722336916E-01
64  6.3000000000000E-01 -6.1630263395404E-01  1.3623682151842E+00  5.2582160947038E-02
65  6.4000000000000E-01 -6.4355640005148E-01  1.3744937333338E+00 -4.6337211809615E-02
66  6.5000000000000E-01 -6.6638680090352E-01  1.3851189917145E+00 -1.4477624411329E-01
67  6.6000000000000E-01 -6.8486856853949E-01  1.3941938722959E+00 -2.4206887071113E-01
68  6.7000000000000E-01 -6.9909988472989E-01  1.4016726113653E+00 -3.3754907152925E-01
69  6.8000000000000E-01 -7.0920102941042E-01  1.4075140314771E+00 -4.3055263518015E-01
70  6.9000000000000E-01 -7.1531290567055E-01  1.4116817641680E+00 -5.2041930641974E-01
71  7.0000000000000E-01 -7.1759545214738E-01  1.4141444636572E+00 -6.0649538292298E-01
72  7.1000000000000E-01 -7.1622595470421E-01  1.4148760114118E+00 -6.8813680947823E-01
73  7.2000000000000E-01 -7.1139727026869E-01  1.4138557110771E+00 -7.6471279843551E-01
74  7.3000000000000E-01 -7.0331597664026E-01  1.4110684728768E+00 -8.3560998447512E-01
75  7.4000000000000E-01 -6.9220046292563E-01  1.4065049861776E+00 -9.0023710012915E-01
76  7.5000000000000E-01 -6.7827897600503E-01  1.4001618785101E+00 -9.5803013657497E-01
77  7.6000000000000E-01 -6.6178763904862E-01  1.3920418589583E+00 -1.0084579326444E+00
78  7.7000000000000E-01 -6.4296845857184E-01  1.3821538434808E+00 -1.0510281144100E+00
79  7.8000000000000E-01 -6.2206733682387E-01  1.3705130594286E+00 -1.0852932886454E+00
80  7.9000000000000E-01 -5.9933210642763E-01  1.3571411262854E+00 -1.1108573765347E+00
81  8.0000000000000E-01 -5.7501060412177E-01  1.3420661094876E+00 -1.1273819596649E+00
82  8.1000000000000E-01 -5.4934880018436E-01  1.3253225440949E+00 -1.1345924990580E+00
83  8.2000000000000E-01 -5.2258899963925E-01  1.3069514250817E+00 -1.1322842801157E+00
84  8.3000000000000E-01 -4.9496813065765E-01  1.2870001611139E+00 -1.1203279321495E+00
85  8.4000000000000E-01 -4.6671613467160E-01  1.2655224888609E+00 -1.0986743708283E+00
86  8.5000000000000E-01 -4.3805447161865E-01  1.2425783451796E+00 -1.0673590154961E+00
87  8.6000000000000E-01 -4.0919475245009E-01  1.2182336948832E+00 -1.0265051408542E+00
88  8.7000000000000E-01 -3.8033750957158E-01  1.1925603122709E+00 -9.7632623389158E-01
89  8.8000000000000E-01 -3.5167111426532E-01  1.1656355151469E+00 -9.1712724194368E-01
90  8.9000000000000E-01 -3.2337084838743E-01  1.1375418506731E+00 -8.4930461609059E-01
91  9.0000000000000E-01 -2.9559813576936E-01  1.1083667330824E+00 -7.7334507537672E-01
92  9.1000000000000E-01 -2.6849993680574E-01  1.0782020340108E+00 -6.8982304108487E-01
93  9.2000000000000E-01 -2.4220830771178E-01  1.0471436269669E+00 -5.9939671602944E-01
94  9.3000000000000E-01 -2.1684012391547E-01  1.0152908882417E+00 -5.0280281093300E-01
95  9.4000000000000E-01 -1.9249696504229E-01  9.8274615734307E-01 -4.0084994785815E-01
96  9.5000000000000E-01 -1.6926515698980E-01  9.4961416080924E-01 -2.9441079868967E-01
97  9.6000000000000E-01 -1.4721596470405E-01  9.1600140399033E-01 -1.8441304421847E-01
98  9.7000000000000E-01 -1.2640592749517E-01  8.8201553607695E-01 -7.1829265768329E-02
99  9.8000000000000E-01 -1.0687732709113E-01  8.4776469427730E-01  4.2334094027451E-02
100  9.9000000000000E-01 -8.8658777156327E-02  8.1335683359002E-01  1.5704854237942E-01
101  1.0000000000000E+00 -7.1765921718015E-02  7.7889904907332E-01  2.7127594103595E-01
102  1.0100000000000E+00 -5.6202228870056E-02  7.4449689786032E-01  3.8398130999791E-01
103  1.0200000000000E+00 -4.1959865276348E-02  7.1025372840787E-01  4.9414582332166E-01
104  1.0300000000000E+00 -2.9020636388560E-02  6.7627002458280E-01  6.0077978170573E-01
105  1.0400000000000E+00 -1.7356976932006E-02  6.4264277218198E-01  7.0293534244144E-01
106  1.0500000000000E+00 -6.9329761039313E-03  6.0946485534753E-01  7.9971878759137E-01
107  1.0600000000000E+00  2.2945779327616E-03  5.7682449007773E-01  8.9030211595261E-01
108  1.0700000000000E+00  1.0375149293499E-02  5.4480470164804E-01  9.7393375344805E-01
109  1.0800000000000E+00  1.7363415772261E-02  5.1348285225449E-01  1.0499481898373E+00
110  1.0900000000000E+00  2.3318253981496E-02  4.8293022457676E-01  1.1177743668883E+00
111  1.1000000000000E+00  2.8301760782088E-02  4.5321166624432E-01  1.1769426639933E+00
112  1.1100000000000E+00  3.2378322343041E-02  4.2438529938670E-01  1.2270903512707E+00
113  1.1200000000000E+00  3.5613740805666E-02  3.9650229857025E-01  1.2679654070280E+00
114  1.1300000000000E+00  3.8074427041158E-02  3.6960673948814E-01  1.2994286254363E+00
115  1.1400000000000E+00  3.9826666403858E-02  3.4373551978809E-01  1.3214539709697E+00
116  1.1500000000000E+00  4.0935962737385E-02  3.1891835241726E-01  1.3341271677977E+00
117  1.1600000000000E+00  4.1466464204569E-02  2.9517783084504E-01  1.3376425445018E+00
118  1.1700000000000E+00  4.1480472830248E-02  2.7252956451824E-01  1.3322981863547E+00
119  1.1800000000000E+00  4.1038037985019E-02  2.5098238191772E-01  1.3184894785828E+00
120  1.1900000000000E+00  4.0196632435612E-02  2.3053859764275E-01  1.2967011538115E+00
121  1.2000000000000E+00  3.9010908068592E-02  2.1119433906240E-01  1.2674979847530E+00
122  1.2100000000000E+00  3.7532526974435E-02  1.9293992725231E-01  1.2315142888112E+00
123  1.2200000000000E+00  3.5810062297585E-02  1.7576030620018E-01  1.1894424339176E+00
124  1.2300000000000E+00  3.3888962107069E-02  1.5963551361228E-01  1.1420205546660E+00
125  1.2400000000000E+00  3.1811568560898E-02  1.4454118610610E-01  1.0900197039882E+00
126  1.2500000000000E+00  2.9617183817444E-02  1.3044909112811E-01  1.0342306783240E+00
127  1.2600000000000E+00  2.7342173500487E-02  1.1732767759620E-01  9.7545076327822E-01
128  1.2700000000000E+00  2.5020098056343E-02  1.0514263703690E-01  9.1447065209168E-01
129  1.2800000000000E+00  2.2681862041818E-02  9.3857466862818E-02  8.5206179102770E-01
130  1.2900000000000E+00  2.0355871251400E-02  8.3434027415624E-02  7.8896440407183E-01
131  1.3000000000000E+00  1.8068187617052E-02  7.3833084477040E-02  7.2587644444620E-01
132  1.3100000000000E+00  1.5842671983541E-02  6.5014829118345E-02  6.6344371260397E-01
133  1.3200000000000E+00  1.3701105160997E-02  5.6939367009266E-02  6.0225136993606E-01
134  1.3300000000000E+00  1.1663278065741E-02  4.9567169628993E-02  5.4281706482683E-01
135  1.3400000000000E+00  9.7470422601478E-03  4.2859480203791E-02  4.8558587336768E-01
136  1.3500000000000E+00  7.9683127773462E-03  3.6778667629528E-02  4.3092724130399E-01
137  1.3600000000000E+00  6.3410157379514E-03  3.1288522105339E-02  3.7913409730576E-01
138  1.3700000000000E+00  4.8769739191272E-03  2.6354486699203E-02  3.3042429072951E-01
139  1.3800000000000E+00  3.5857240978764E-03  2.1943819573408E-02  2.8494449015864E-01
140  1.3900000000000E+00  2.4742606450832E-03  1.8025682109205E-02  2.4277666253465E-01
141  1.4000000000000E+00  1.5467043045181E-03  1.4571151339010E-02  2.0394717789652E-01
142  1.4100000000000E+00  8.0383970648561E-04  1.1553117266785E-02  1.6843942941909E-01
143  1.4200000000000E+00  2.4279630295638E-04  8.9462469924940E-03  1.3620581586995E-01
144  1.4300000000000E+00 -1.4529815142472E-04  6.7255588500397E-03  1.0721217095864E-01
145  1.4400000000000E+00 -3.8843669478326E-04  4.8570709024192E-03  8.1653475548194E-02
146  1.4500000000000E+00 -5.0140826087724E-04  3.3202805824724E-03  5.9466887737257E-02
147  1.4600000000000E+00 -4.9737808783322E-04  2.1011480186939E-03  4.0515711983000E-02
148  1.4700000000000E+00 -4.0191724916232E-04  1.1824316608816E-03  2.4821037714155E-02
149  1.4800000000000E+00 -2.5270426189443E-04  5.4398036275394E-04  1.2578437508452E-02
150  1.4900000000000E+00 -9.8356979081696E-05  1.6035912953390E-04  4.1282059551929E-03
151  1.5000000000000E+00 -8.4090039189401E-06  1.0340662287366E-05  3.0298170582908E-04
152  1.5100000000000E+00  1.3300038918682E-06 -1.4531218362880E-06 -4.5417737314906E-05
153  1.5200000000000E+00 -2.0857199267078E-07  2.5906182556286E-07  7.5718784487459E-06
154  1.53  0.  0.  0.
155  1.54  0.  0.  0.
156  1.55  0.  0.  0.
157  1.56  0.  0.  0.
158  1.57  0.  0.  0.
159  1.58  0.  0.  0.
160  1.59  0.  0.  0.
161  1.60  0.  0.  0.
162  1.61  0.  0.  0.
163  1.62  0.  0.  0.
164  1.63  0.  0.  0.
165  1.64  0.  0.  0.
166  1.65  0.  0.  0.
167  1.66  0.  0.  0.
168  1.67  0.  0.  0.
169  1.68  0.  0.  0.
170  1.69  0.  0.  0.
171  1.70  0.  0.  0.
172  1.71  0.  0.  0.
173  1.72  0.  0.  0.
174  1.73  0.  0.  0.
175  1.74  0.  0.  0.
176  1.75  0.  0.  0.
177  1.76  0.  0.  0.
178  1.77  0.  0.  0.
179  1.78  0.  0.  0.
180  1.79  0.  0.  0.
181  1.80  0.  0.  0.
182  1.81  0.  0.  0.
183  1.82  0.  0.  0.
184  1.83  0.  0.  0.
185  1.84  0.  0.  0.
186  1.85  0.  0.  0.
187  1.86  0.  0.  0.
188  1.87  0.  0.  0.
189  1.88  0.  0.  0.
190  1.89  0.  0.  0.
191  1.90  0.  0.  0.
192  1.91  0.  0.  0.
193  1.92  0.  0.  0.
194  1.93  0.  0.  0.
195  1.94  0.  0.  0.
196  1.95  0.  0.  0.
197  1.96  0.  0.  0.
198  1.97  0.  0.  0.
199  1.98  0.  0.  0.
200  1.99  0.  0.  0.
201  2.00  0.  0.  0.
202  2.01  0.  0.  0.
203  2.02  0.  0.  0.
204  2.03  0.  0.  0.
205  2.04  0.  0.  0.
206  2.05  0.  0.  0.
207  2.06  0.  0.  0.
208  2.07  0.  0.  0.
209  2.08  0.  0.  0.
210  2.09  0.  0.  0.
211  2.10  0.  0.  0.
212  2.11  0.  0.  0.
213  2.12  0.  0.  0.
214  2.13  0.  0.  0.
215  2.14  0.  0.  0.
216  2.15  0.  0.  0.
217  2.16  0.  0.  0.
218  2.17  0.  0.  0.
219  2.18  0.  0.  0.
220  2.19  0.  0.  0.
221  2.20  0.  0.  0.
222  2.21  0.  0.  0.
223  2.22  0.  0.  0.
224  2.23  0.  0.  0.
225  2.24  0.  0.  0.
226  2.25  0.  0.  0.
227  2.26  0.  0.  0.
228  2.27  0.  0.  0.
229  2.28  0.  0.  0.
230  2.29  0.  0.  0.
231  2.30  0.  0.  0.
232  2.31  0.  0.  0.
233  2.32  0.  0.  0.
234  2.33  0.  0.  0.
235  2.34  0.  0.  0.
236  2.35  0.  0.  0.
237  2.36  0.  0.  0.
238  2.37  0.  0.  0.
239  2.38  0.  0.  0.
240  2.39  0.  0.  0.
241  2.40  0.  0.  0.
242  2.41  0.  0.  0.
243  2.42  0.  0.  0.
244  2.43  0.  0.  0.
245  2.44  0.  0.  0.
246  2.45  0.  0.  0.
247  2.46  0.  0.  0.
248  2.47  0.  0.  0.
249  2.48  0.  0.  0.
250  2.49  0.  0.  0.
251  2.50  0.  0.  0.
252  2.51  0.  0.  0.
253  2.52  0.  0.  0.
254  2.53  0.  0.  0.
255  2.54  0.  0.  0.
256  2.55  0.  0.  0.
257  2.56  0.  0.  0.
258  2.57  0.  0.  0.
259  2.58  0.  0.  0.
260  2.59  0.  0.  0.
261  2.60  0.  0.  0.
262  2.61  0.  0.  0.
263  2.62  0.  0.  0.
264  2.63  0.  0.  0.
265  2.64  0.  0.  0.
266  2.65  0.  0.  0.
267  2.66  0.  0.  0.
268  2.67  0.  0.  0.
269  2.68  0.  0.  0.
270  2.69  0.  0.  0.
271  2.70  0.  0.  0.
272  2.71  0.  0.  0.
273  2.72  0.  0.  0.
274  2.73  0.  0.  0.
275  2.74  0.  0.  0.
276  2.75  0.  0.  0.
277  2.76  0.  0.  0.
278  2.77  0.  0.  0.
279  2.78  0.  0.  0.
280  2.79  0.  0.  0.
281  2.80  0.  0.  0.
282  2.81  0.  0.  0.
283  2.82  0.  0.  0.
284  2.83  0.  0.  0.
285  2.84  0.  0.  0.
286  2.85  0.  0.  0.
287  2.86  0.  0.  0.
288  2.87  0.  0.  0.
289  2.88  0.  0.  0.
290  2.89  0.  0.  0.
291  2.90  0.  0.  0.
292  2.91  0.  0.  0.
293  2.92  0.  0.  0.
294  2.93  0.  0.  0.
295  2.94  0.  0.  0.
296  2.95  0.  0.  0.
297  2.96  0.  0.  0.
298  2.97  0.  0.  0.
299  2.98  0.  0.  0.
300  2.99  0.  0.  0.
301  3.00  0.  0.  0.
302  3.01  0.  0.  0.
303  3.02  0.  0.  0.
304  3.03  0.  0.  0.
305  3.04  0.  0.  0.
306  3.05  0.  0.  0.
307  3.06  0.  0.  0.
308  3.07  0.  0.  0.
309  3.08  0.  0.  0.
310  3.09  0.  0.  0.
311  3.10  0.  0.  0.
312  3.11  0.  0.  0.
313  3.12  0.  0.  0.
314  3.13  0.  0.  0.
315  3.14  0.  0.  0.
316  3.15  0.  0.  0.
317  3.16  0.  0.  0.
318  3.17  0.  0.  0.
319  3.18  0.  0.  0.
320  3.19  0.  0.  0.
321  3.20  0.  0.  0.
322  3.21  0.  0.  0.
323  3.22  0.  0.  0.
324  3.23  0.  0.  0.
325  3.24  0.  0.  0.
326  3.25  0.  0.  0.
327  3.26  0.  0.  0.
328  3.27  0.  0.  0.
329  3.28  0.  0.  0.
330  3.29  0.  0.  0.
331  3.30  0.  0.  0.
332  3.31  0.  0.  0.
333  3.32  0.  0.  0.
334  3.33  0.  0.  0.
335  3.34  0.  0.  0.
336  3.35  0.  0.  0.
337  3.36  0.  0.  0.
338  3.37  0.  0.  0.
339  3.38  0.  0.  0.
340  3.39  0.  0.  0.
341  3.40  0.  0.  0.
342  3.41  0.  0.  0.
343  3.42  0.  0.  0.
344  3.43  0.  0.  0.
345  3.44  0.  0.  0.
346  3.45  0.  0.  0.
347  3.46  0.  0.  0.
348  3.47  0.  0.  0.
349  3.48  0.  0.  0.
350  3.49  0.  0.  0.
351  3.50  0.  0.  0.
352  3.51  0.  0.  0.
353  3.52  0.  0.  0.
354  3.53  0.  0.  0.
355  3.54  0.  0.  0.
356  3.55  0.  0.  0.
357  3.56  0.  0.  0.
358  3.57  0.  0.  0.
359  3.58  0.  0.  0.
360  3.59  0.  0.  0.
361  3.60  0.  0.  0.
362  3.61  0.  0.  0.
363  3.62  0.  0.  0.
364  3.63  0.  0.  0.
365  3.64  0.  0.  0.
366  3.65  0.  0.  0.
367  3.66  0.  0.  0.
368  3.67  0.  0.  0.
369  3.68  0.  0.  0.
370  3.69  0.  0.  0.
371  3.70  0.  0.  0.
372  3.71  0.  0.  0.
373  3.72  0.  0.  0.
374  3.73  0.  0.  0.
375  3.74  0.  0.  0.
376  3.75  0.  0.  0.
377  3.76  0.  0.  0.
378  3.77  0.  0.  0.
379  3.78  0.  0.  0.
380  3.79  0.  0.  0.
381  3.80  0.  0.  0.
382  3.81  0.  0.  0.
383  3.82  0.  0.  0.
384  3.83  0.  0.  0.
385  3.84  0.  0.  0.
386  3.85  0.  0.  0.
387  3.86  0.  0.  0.
388  3.87  0.  0.  0.
389  3.88  0.  0.  0.
390  3.89  0.  0.  0.
391  3.90  0.  0.  0.
392  3.91  0.  0.  0.
393  3.92  0.  0.  0.
394  3.93  0.  0.  0.
395  3.94  0.  0.  0.
396  3.95  0.  0.  0.
397  3.96  0.  0.  0.
398  3.97  0.  0.  0.
399  3.98  0.  0.  0.
400  3.99  0.  0.  0.
401  4.00  0.  0.  0.
402  4.01  0.  0.  0.
403  4.02  0.  0.  0.
404  4.03  0.  0.  0.
405  4.04  0.  0.  0.
406  4.05  0.  0.  0.
407  4.06  0.  0.  0.
408  4.07  0.  0.  0.
409  4.08  0.  0.  0.
410  4.09  0.  0.  0.
411  4.10  0.  0.  0.
412  4.11  0.  0.  0.
413  4.12  0.  0.  0.
414  4.13  0.  0.  0.
415  4.14  0.  0.  0.
416  4.15  0.  0.  0.
417  4.16  0.  0.  0.
418  4.17  0.  0.  0.
419  4.18  0.  0.  0.
420  4.19  0.  0.  0.
421  4.20  0.  0.  0.
422  4.21  0.  0.  0.
423  4.22  0.  0.  0.
424  4.23  0.  0.  0.
425  4.24  0.  0.  0.
426  4.25  0.  0.  0.
427  4.26  0.  0.  0.
428  4.27  0.  0.  0.
429  4.28  0.  0.  0.
430  4.29  0.  0.  0.
431  4.30  0.  0.  0.
432  4.31  0.  0.  0.
433  4.32  0.  0.  0.
434  4.33  0.  0.  0.
435  4.34  0.  0.  0.
436  4.35  0.  0.  0.
437  4.36  0.  0.  0.
438  4.37  0.  0.  0.
439  4.38  0.  0.  0.
440  4.39  0.  0.  0.
441  4.40  0.  0.  0.
442  4.41  0.  0.  0.
443  4.42  0.  0.  0.
444  4.43  0.  0.  0.
445  4.44  0.  0.  0.
446  4.45  0.  0.  0.
447  4.46  0.  0.  0.
448  4.47  0.  0.  0.
449  4.48  0.  0.  0.
450  4.49  0.  0.  0.
451  4.50  0.  0.  0.
452  4.51  0.  0.  0.
453  4.52  0.  0.  0.
454  4.53  0.  0.  0.
455  4.54  0.  0.  0.
456  4.55  0.  0.  0.
457  4.56  0.  0.  0.
458  4.57  0.  0.  0.
459  4.58  0.  0.  0.
460  4.59  0.  0.  0.
461  4.60  0.  0.  0.
462  4.61  0.  0.  0.
463  4.62  0.  0.  0.
464  4.63  0.  0.  0.
465  4.64  0.  0.  0.
466  4.65  0.  0.  0.
467  4.66  0.  0.  0.
468  4.67  0.  0.  0.
469  4.68  0.  0.  0.
470  4.69  0.  0.  0.
471  4.70  0.  0.  0.
472  4.71  0.  0.  0.
473  4.72  0.  0.  0.
474  4.73  0.  0.  0.
475  4.74  0.  0.  0.
476  4.75  0.  0.  0.
477  4.76  0.  0.  0.
478  4.77  0.  0.  0.
479  4.78  0.  0.  0.
480  4.79  0.  0.  0.
481  4.80  0.  0.  0.
482  4.81  0.  0.  0.
483  4.82  0.  0.  0.
484  4.83  0.  0.  0.
485  4.84  0.  0.  0.
486  4.85  0.  0.  0.
487  4.86  0.  0.  0.
488  4.87  0.  0.  0.
489  4.88  0.  0.  0.
490  4.89  0.  0.  0.
491  4.90  0.  0.  0.
492  4.91  0.  0.  0.
493  4.92  0.  0.  0.
494  4.93  0.  0.  0.
495  4.94  0.  0.  0.
496  4.95  0.  0.  0.
497  4.96  0.  0.  0.
498  4.97  0.  0.  0.
499  4.98  0.  0.  0.
500  4.99  0.  0.  0.
501  5.00  0.  0.  0.
502  5.01  0.  0.  0.
503  5.02  0.  0.  0.
504  5.03  0.  0.  0.
505  5.04  0.  0.  0.
506  5.05  0.  0.  0.
507  5.06  0.  0.  0.
508  5.07  0.  0.  0.
509  5.08  0.  0.  0.
510  5.09  0.  0.  0.
511  5.10  0.  0.  0.
512  5.11  0.  0.  0.
513  5.12  0.  0.  0.
514  5.13  0.  0.  0.
515  5.14  0.  0.  0.
516  5.15  0.  0.  0.
517  5.16  0.  0.  0.
518  5.17  0.  0.  0.
519  5.18  0.  0.  0.
520  5.19  0.  0.  0.
521  5.20  0.  0.  0.
522  5.21  0.  0.  0.
523  5.22  0.  0.  0.
524  5.23  0.  0.  0.
525  5.24  0.  0.  0.
526  5.25  0.  0.  0.
527  5.26  0.  0.  0.
528  5.27  0.  0.  0.
529  5.28  0.  0.  0.
530  5.29  0.  0.  0.
531  5.30  0.  0.  0.
532  5.31  0.  0.  0.
533  5.32  0.  0.  0.
534  5.33  0.  0.  0.
535  5.34  0.  0.  0.
536  5.35  0.  0.  0.
537  5.36  0.  0.  0.
538  5.37  0.  0.  0.
539  5.38  0.  0.  0.
540  5.39  0.  0.  0.
541  5.40  0.  0.  0.
542  5.41  0.  0.  0.
543  5.42  0.  0.  0.
544  5.43  0.  0.  0.
545  5.44  0.  0.  0.
546  5.45  0.  0.  0.
547  5.46  0.  0.  0.
548  5.47  0.  0.  0.
549  5.48  0.  0.  0.
550  5.49  0.  0.  0.
551  5.50  0.  0.  0.
552  5.51  0.  0.  0.
553  5.52  0.  0.  0.
554  5.53  0.  0.  0.
555  5.54  0.  0.  0.
556  5.55  0.  0.  0.
557  5.56  0.  0.  0.
558  5.57  0.  0.  0.
559  5.58  0.  0.  0.
560  5.59  0.  0.  0.
561  5.60  0.  0.  0.
562  5.61  0.  0.  0.
563  5.62  0.  0.  0.
564  5.63  0.  0.  0.
565  5.64  0.  0.  0.
566  5.65  0.  0.  0.
567  5.66  0.  0.  0.
568  5.67  0.  0.  0.
569  5.68  0.  0.  0.
570  5.69  0.  0.  0.
571  5.70  0.  0.  0.
572  5.71  0.  0.  0.
573  5.72  0.  0.  0.
574  5.73  0.  0.  0.
575  5.74  0.  0.  0.
576  5.75  0.  0.  0.
577  5.76  0.  0.  0.
578  5.77  0.  0.  0.
579  5.78  0.  0.  0.
580  5.79  0.  0.  0.
581  5.80  0.  0.  0.
582  5.81  0.  0.  0.
583  5.82  0.  0.  0.
584  5.83  0.  0.  0.
585  5.84  0.  0.  0.
586  5.85  0.  0.  0.
587  5.86  0.  0.  0.
588  5.87  0.  0.  0.
589  5.88  0.  0.  0.
590  5.89  0.  0.  0.
591  5.90  0.  0.  0.
592  5.91  0.  0.  0.
593  5.92  0.  0.  0.
594  5.93  0.  0.  0.
595  5.94  0.  0.  0.
596  5.95  0.  0.  0.
597  5.96  0.  0.  0.
598  5.97  0.  0.  0.
599  5.98  0.  0.  0.
600  5.99  0.  0.  0.
1                         6.3255583120438E+00 -1.8306871905399E+00 -6.3393159136604E-01
1  0.0000000000000E+00  1.2839873608783E-09 -1.2378478242425E-09  5.1829607272680E-10
2  1.0000000000000E-02  2.6284126348101E-03 -1.4015165628508E-03  2.0681097944240E-03
3  2.0000000000000E-02  1.0497465381859E-02 -5.5912727270048E-03  8.2531478472428E-03
4  3.0000000000000E-02  2.3558706924587E-02 -1.2524999956302E-02  1.8497372229756E-02
5  4.0000000000000E-02  4.1731731590667E-02 -2.2129290219206E-02  3.2704986545570E-02
6  5.0000000000000E-02  6.4904696815461E-02 -3.4302153197518E-02  5.0742799931166E-02
7  6.0000000000000E-02  9.2935042961573E-02 -4.8913792197941E-02  7.2441150509415E-02
8  7.0000000000000E-02  1.2565041088738E-01 -6.5807594559519E-02  9.7595091533507E-02
9  8.0000000000000E-02  1.6284975137350E-01 -8.4801331112134E-02  1.2596583894043E-01
10  9.0000000000000E-02  2.0430461925670E-01 -1.0568855798054E-01  1.5728247830434E-01
11  1.0000000000000E-01  2.4976064389296E-01 -1.2824021274305E-01  1.9124392820703E-01
12  1.1000000000000E-01  2.9893916638031E-01 -1.5220639564560E-01  2.2752115580348E-01
13  1.2000000000000E-01  3.5153903282679E-01 -1.7731832524289E-01  2.6575963883779E-01
14  1.3000000000000E-01  4.0723853185453E-01 -2.0329045649564E-01  3.0558206655767E-01
15  1.4000000000000E-01  4.6569746349714E-01 -2.2982274800413E-01  3.4659126988541E-01
16  1.5000000000000E-01  5.2655932568121E-01 -2.5660306371512E-01  3.8837336885170E-01
17  1.6000000000000E-01  5.8945360359282E-01 -2.8330969311521E-01  4.3050112270758E-01
18  1.7000000000000E-01  6.5399814642455E-01 -3.0961397263478E-01  4.7253746534065E-01
19  1.8000000000000E-01  7.1980161528666E-01 -3.3518298975164E-01  5.1403920567903E-01
20  1.9000000000000E-01  7.8646598545622E-01 -3.5968235012124E-01  5.5456086972655E-01
21  2.0000000000000E-01  8.5358908563780E-01 -3.8277898699397E-01  5.9365865779824E-01
22  2.1000000000000E-01  9.2076715652845E-01 -4.0414399122986E-01  6.3089448748545E-01
23  2.2000000000000E-01  9.8759741072332E-01 -4.2345543941209E-01  6.6584008994810E-01
24  2.3000000000000E-01  1.0536805758752E+00 -4.4040119691378E-01  6.9808112438435E-01
25  2.4000000000000E-01  1.1186234030364E+00 -4.5468167231061E-01  7.2722127304233E-01
26  2.5000000000000E-01  1.1820411222690E+00 -4.6601249927620E-01  7.5288627699097E-01
27  2.6000000000000E-01  1.2435598279147E+00 -4.7412712206502E-01  7.7472787113112E-01
28  2.7000000000000E-01  1.3028187763693E+00 -4.7877926089742E-01  7.9242757567169E-01
29  2.8000000000000E-01  1.3594725798103E+00 -4.7974523402517E-01  8.0570030058204E-01
30  2.9000000000000E-01  1.4131932800760E+00 -4.7682611398482E-01  8.1429771941339E-01
31  3.0000000000000E-01  1.4636722877958E+00 -4.6984969654566E-01  8.1801136940310E-01
32  3.1000000000000E-01  1.5106221729059E+00 -4.5867226213162E-01  8.1667543596856E-01
33  3.2000000000000E-01  1.5537782938620E+00 -4.4318011103932E-01  8.1016918158157E-01
34  3.3000000000000E-01  1.5929002541570E+00 -4.2329085558051E-01  7.9841898159627E-01
35  3.4000000000000E-01  1.6277731761703E+00 -3.9895445433404E-01  7.8139993287603E-01
36  3.5000000000000E-01  1.6582087838939E+00 -3.7015397598385E-01  7.5913700500567E-01
37  3.6000000000000E-01  1.6840462876926E+00 -3.3690608272304E-01  7.3170570844812E-01
38  3.7000000000000E-01  1.7051530659394E+00 -2.9926122589471E-01  6.9923225915947E-01
39  3.8000000000000E-01  1.7214251401130E+00 -2.5730354938667E-01  6.6189322484931E-01
40  3.9000000000000E-01  1.7327874417301E+00 -2.1115049926632E-01  6.1991464418827E-01
41  4.0000000000000E-01  1.7391938712879E+00 -1.6095214119569E-01  5.7357061673448E-01
42  4.1000000000000E-01  1.7406271512061E+00 -1.0689019026637E-01  5.2318136807834E-01
43  4.2000000000000E-01  1.7370984765440E+00 -4.9176760995610E-02  4.6911080158477E-01
44  4.3000000000000E-01  1.7286469690240E+00  1.1947151712569E-02  4.1176355503468E-01
45  4.4000000000000E-01  1.7153389415836E+00  7.6213446859530E-02  3.5158158731476E-01
46  4.5000000000000E-01  1.6972669822983E+00  1.4332893026562E-01  2.8904032696324E-01
47  4.6000000000000E-01  1.6745488680316E+00  2.1297754679331E-01  2.2464442073033E-01
48  4.7000000000000E-01  1.6473263195780E+00  2.8482281009953E-01  1.5892312624288E-01
49  4.8000000000000E-01  1.6157636113328E+00  3.5851040591751E-01  9.2425398265879E-02
50  4.9000000000000E-01  1.5800460496516E+00  4.3367094293407E-01  2.5714722826184E-02
51  5.0000000000000E-01  1.5403783350283E+00  5.0992282370866E-01 -4.0636242483665E-02
52  5.1000000000000E-01  1.4969828240159E+00  5.8687520680323E-01 -1.0605116045275E-01
53  5.2000000000000E-01  1.4500977074324E+00  6.6413103037682E-01 -1.6995557449800E-01
54  5.3000000000000E-01  1.3999751218253E+00  7.4129006696294E-01 -2.3178247179515E-01
55  5.4000000000000E-01  1.3468792114096E+00  8.1795197899847E-01 -2.9097778337406E-01
56  5.5000000000000E-01  1.2910841577457E+00  8.9371934491620E-01 -3.4700575572987E-01
57  5.6000000000000E-01  1.2328721942895E+00  9.6820062624341E-01 -3.9935412995249E-01
58  5.7000000000000E-01  1.1725316226209E+00  1.0410130471587E+00 -4.4753906679153E-01
59  5.8000000000000E-01  1.1103548466608E+00  1.1117853593317E+00 -4.9110975942256E-01
60  5.9000000000000E-01  1.0466364405171E+00  1.1801604665859E+00 -5.2965267990989E-01
61  6.0000000000000E-01  9.8167126477725E-01  1.2457978859516E+00 -5.6279541040923E-01
62  6.1000000000000E-01  9.1575264509261E-01  1.3083760239885E+00 -5.9021001593795E-01
63  6.2000000000000E-01  8.4917062581058E-01  1.3675942498133E+00 -6.1161592196720E-01
64  6.3000000000000E-01  7.8221031019877E-01  1.4231747490262E+00 -6.2678226705409E-01
65  6.4000000000000E-01  7.1515029751219E-01  1.4748641456504E+00 -6.3552970811525E-01
66  6.5000000000000E-01  6.4826122578412E-01  1.5224348822328E+00 -6.3773166362374E-01
67  6.6000000000000E-01  5.8180442780147E-01  1.5656863513494E+00 -6.3331498785886E-01
68  6.7000000000000E-01  5.1603070627536E-01  1.6044457748747E+00 -6.2226007722030E-01
69  6.8000000000000E-01  4.5117923275753E-01  1.6385688304538E+00 -6.0460041740270E-01
70  6.9000000000000E-01  3.8747657340480E-01  1.6679400276170E+00 -5.8042158778133E-01
71  7.0000000000000E-01  3.2513584327596E-01  1.6924728388512E+00 -5.4985974655907E-01
72  7.1000000000000E-01  2.6435598947793E-01  1.7121095936459E+00 -5.1309962694940E-01