Ub    ONCVPSP-4.0.1  r_core=   1.50269   1.50269   1.50269
120.0000     28.0000      231012    zatom,zion,pspd
8   -1012   2     4   600     0    pspcod,pspxc,lmax,lloc,mmax,r2well
5.99000000  5.00000000  0.00000000    rchrg fchrg qchrg
3     2     2     0     0    nproj
1     1           extension_switch
0                         1.9857691270966E+01 -3.5865307278778E+00 -2.4101728320135E-01
1  0.0000000000000E+00 -1.7585297662492E-09 -5.3012433332000E-10  2.4135683895921E-08
2  1.0000000000000E-02  1.3041485435349E-01  1.7895309286508E-02 -1.1784078232705E-01
3  2.0000000000000E-02  2.6017574198495E-01  3.5796944875481E-02 -2.3418469032544E-01
4  3.0000000000000E-02  3.8863305964452E-01  5.3711480469190E-02 -3.4755559690864E-01
5  4.0000000000000E-02  5.1514589266002E-01  7.1645977849657E-02 -4.5651853267506E-01
6  5.0000000000000E-02  6.3908626376671E-01  8.9608214258762E-02 -5.5969942911759E-01
7  6.0000000000000E-02  7.5984326866038E-01  1.0760689017543E-01 -6.5580387676127E-01
8  7.0000000000000E-02  8.7682706261673E-01  1.2565181159465E-01 -7.4363459895173E-01
9  8.0000000000000E-02  9.8947266427832E-01  1.4375404144307E-01 -8.2210736615219E-01
10  9.0000000000000E-02  1.0972435448560E+00  1.6192601540733E-01 -8.9026510480998E-01
11  1.0000000000000E-01  1.1996349734898E+00  1.8018161818915E-01 -9.4728998851148E-01
12  1.1000000000000E-01  1.2961770923257E+00  1.9853621702167E-01 -9.9251333655407E-01
13  1.2000000000000E-01  1.3864376979507E+00  2.1700665016539E-01 -1.0254231854465E+00
14  1.3000000000000E-01  1.4700247091295E+00  2.3561116903201E-01 -1.0456694413692E+00
15  1.4000000000000E-01  1.5465883042728E+00  2.5436933354010E-01 -1.0530665654051E+00
16  1.5000000000000E-01  1.6158227156625E+00  2.7330186126860E-01 -1.0475937874954E+00
17  1.6000000000000E-01  1.6774676711350E+00  2.9243043192181E-01 -1.0293928886892E+00
18  1.7000000000000E-01  1.7313094776077E+00  3.1177744953430E-01 -9.9876363346032E-01
19  1.8000000000000E-01  1.7771817444896E+00  3.3136576570647E-01 -9.5615697382820E-01
20  1.9000000000000E-01  1.8149657485840E+00  3.5121836795453E-01 -9.0216618395498E-01
21  2.0000000000000E-01  1.8445904455296E+00  3.7135803796677E-01 -8.3751611709991E-01
22  2.1000000000000E-01  1.8660321360922E+00  3.9180698516680E-01 -7.6305080567033E-01
23  2.2000000000000E-01  1.8793137986697E+00  4.1258646148351E-01 -6.7971964910488E-01
24  2.3000000000000E-01  1.8845041021800E+00  4.3371636360691E-01 -5.8856245304972E-01
25  2.4000000000000E-01  1.8817161160335E+00  4.5521482926328E-01 -4.9069359646391E-01
26  2.5000000000000E-01  1.8711057361253E+00  4.7709783416807E-01 -3.8728561075007E-01
27  2.6000000000000E-01  1.8528698477053E+00  4.9937879631054E-01 -2.7955245672090E-01
28  2.7000000000000E-01  1.8272442475763E+00  5.2206819409218E-01 -1.6873278126809E-01
29  2.8000000000000E-01  1.7945013493436E+00  5.4517320458624E-01 -5.6073426217723E-02
30  2.9000000000000E-01  1.7549476963717E+00  5.6869736781592E-01  5.7186552641644E-02
31  3.0000000000000E-01  1.7089213077271E+00  5.9264028247331E-01  1.6983111755332E-01
32  3.1000000000000E-01  1.6567888826916E+00  6.1699733793264E-01  2.8068151632714E-01
33  3.2000000000000E-01  1.5989428894459E+00  6.4175948676227E-01  3.8860939680268E-01
34  3.3000000000000E-01  1.5357985632680E+00  6.6691306122695E-01  4.9254860936139E-01
35  3.4000000000000E-01  1.4677908390854E+00  6.9243963650960E-01  5.9150557047747E-01
36  3.5000000000000E-01  1.3953712424924E+00  7.1831594258883E-01  6.8456809354911E-01
37  3.6000000000000E-01  1.3190047624287E+00  7.4451382590087E-01  7.7091262711582E-01
38  3.7000000000000E-01  1.2391667276313E+00  7.7100026110969E-01  8.4980987426964E-01
39  3.8000000000000E-01  1.1563397077624E+00  7.9773741252437E-01  9.2062879987954E-01
40  3.9000000000000E-01  1.0710104588025E+00  8.2468274395296E-01  9.8283906343651E-01
41  4.0000000000000E-01  9.8366693091244E-01  8.5178917508230E-01  1.0360119442760E+00
42  4.1000000000000E-01  8.9479535554499E-01  8.7900528183677E-01  1.0798198520200E+00
43  4.2000000000000E-01  8.0487742713789E-01  9.0627553760635E-01  1.1140345378469E+00
44  4.3000000000000E-01  7.1438759328777E-01  9.3354059175528E-01  1.1385241411853E+00
45  4.4000000000000E-01  6.2379046589113E-01  9.6073758143427E-01  1.1532492213815E+00
46  4.5000000000000E-01  5.3353836437474E-01  9.8780047242545E-01  1.1582579345471E+00
47  4.6000000000000E-01  4.4406900082949E-01  1.0146604245534E+00  1.1536805221080E+00
48  4.7000000000000E-01  3.5580331562270E-01  1.0412461770967E+00  1.1397232795179E+00
49  4.8000000000000E-01  2.6914347089952E-01  1.0674844496309E+00  1.1166621713171E+00
50  4.9000000000000E-01  1.8447100829646E-01  1.0933003538193E+00  1.0848362524045E+00
51  5.0000000000000E-01  1.0214517618139E-01  1.1186178118392E+00  1.0446410453674E+00
52  5.1000000000000E-01  2.2501430797614E-02  1.1433599773759E+00  9.9652201038636E-01
53  5.2000000000000E-01 -5.4149885177814E-02  1.1674496554246E+00  9.4096822804272E-01
54  5.3000000000000E-01 -1.2752468396022E-01  1.1908097175083E+00  8.7850639685462E-01
55  5.4000000000000E-01 -1.9736609192672E-01  1.2133635093196E+00  8.0969522712906E-01
56  5.5000000000000E-01 -2.6344522560966E-01  1.2350352482306E+00  7.3512029132576E-01
57  5.6000000000000E-01 -3.2556178389173E-01  1.2557504085611E+00  6.5538936921431E-01
58  5.7000000000000E-01 -3.8354445656578E-01  1.2754360929450E+00  5.7112830431975E-01
59  5.8000000000000E-01 -4.3725115010529E-01  1.2940213885731E+00  4.8297736702361E-01
60  5.9000000000000E-01 -4.8656903218745E-01  1.3114377075045E+00  3.9158809986582E-01
61  6.0000000000000E-01 -5.3141439722679E-01  1.3276191106187E+00  2.9762060256749E-01
62  6.1000000000000E-01 -5.7173235592290E-01  1.3425026151182E+00  2.0174119852014E-01
63  6.2000000000000E-01 -6.0749635260744E-01  1.3560284857710E+00  1.0462041140824E-01
64  6.3000000000000E-01 -6.3870751499619E-01  1.3681405103103E+00  6.9311705206205E-03
65  6.4000000000000E-01 -6.6539384181419E-01  1.3787862595660E+00 -9.0652843552017E-02
66  6.5000000000000E-01 -6.8760923466172E-01  1.3879173329977E+00 -1.8745880464791E-01
67  6.6000000000000E-01 -7.0543238142497E-01  1.3954895903265E+00 -2.8281639006068E-01
68  6.7000000000000E-01 -7.1896549949687E-01  1.4014633699222E+00 -3.7605956142456E-01
69  6.8000000000000E-01 -7.2833294805406E-01  1.4058036945021E+00 -4.6652855942897E-01
70  6.9000000000000E-01 -7.3367971961957E-01  1.4084804645410E+00 -5.5357218473154E-01
71  7.0000000000000E-01 -7.3516982211582E-01  1.4094686395803E+00 -6.3655042507955E-01
72  7.1000000000000E-01 -7.3298456356020E-01  1.4087484073775E+00 -7.1483747392619E-01
73  7.2000000000000E-01 -7.2732075245876E-01  1.4063053405532E+00 -7.8782516917822E-01
74  7.3000000000000E-01 -7.1838882779347E-01  1.4021305400901E+00 -8.5492686260793E-01
75  7.4000000000000E-01 -7.0641093325468E-01  1.3962207647263E+00 -9.1558171143596E-01
76  7.5000000000000E-01 -6.9161895102506E-01  1.3885785449714E+00 -9.6925936418209E-01
77  7.6000000000000E-01 -6.7425251095316E-01  1.3792122801824E+00 -1.0154649936676E+00
78  7.7000000000000E-01 -6.5455699134893E-01  1.3681363168573E+00 -1.0537446115533E+00
79  7.8000000000000E-01 -6.3278152787100E-01  1.3553710060781E+00 -1.0836905815903E+00
80  7.9000000000000E-01 -6.0917704704497E-01  1.3409427378411E+00 -1.1049472333180E+00
81  8.0000000000000E-01 -5.8399434083979E-01  1.3248839498852E+00 -1.1172164647406E+00
82  8.1000000000000E-01 -5.5748219842904E-01  1.3072331085607E+00 -1.1202632119622E+00
83  8.2000000000000E-01 -5.2988561076855E-01  1.2880346592851E+00 -1.1139206561792E+00
84  8.3000000000000E-01 -5.0144406293178E-01  1.2673389442111E+00 -1.0980950341051E+00
85  8.4000000000000E-01 -4.7238992826002E-01  1.2452020848870E+00 -1.0727699170058E+00
86  8.5000000000000E-01 -4.4294697731327E-01  1.2216858279250E+00 -1.0380098261581E+00
87  8.6000000000000E-01 -4.1332901335881E-01  1.1968573520015E+00 -9.9396305871394E-01
88  8.7000000000000E-01 -3.8373864472093E-01  1.1707890348984E+00 -9.4086360759065E-01
89  8.8000000000000E-01 -3.5436620275583E-01  1.1435581797428E+00 -8.7903207193784E-01
90  8.9000000000000E-01 -3.2538881252879E-01  1.1152467001181E+00 -8.0887547070377E-01
91  9.0000000000000E-01 -2.9696962148082E-01  1.0859407642744E+00 -7.3088589052685E-01
92  9.1000000000000E-01 -2.6925718950459E-01  1.0557303992778E+00 -6.4563792020817E-01
93  9.2000000000000E-01 -2.4238504193227E-01  1.0247090565628E+00 -5.5378484691023E-01
94  9.3000000000000E-01 -2.1647138500004E-01  9.9297314100454E-01 -4.5605361350856E-01
95  9.4000000000000E-01 -1.9161898142627E-01  9.6062150627831E-01 -3.5323856160979E-01
96  9.5000000000000E-01 -1.6791518185241E-01  9.2775491991158E-01 -2.4619401011782E-01
97  9.6000000000000E-01 -1.4543210607810E-01  8.9447550205176E-01 -1.3582574427077E-01
98  9.7000000000000E-01 -1.2422696630421E-01  8.6088614254742E-01 -2.3081514233748E-02
99  9.8000000000000E-01 -1.0434252300630E-01  8.2708990146590E-01  9.1059334949698E-02
100  9.9000000000000E-01 -8.5807662623861E-02  7.9318939863033E-01  2.0559695951818E-01
101  1.0000000000000E+00 -6.8638084987480E-02  7.5928619814399E-01  3.1952267844466E-01
102  1.0100000000000E+00 -5.2837087340299E-02  7.2548019416976E-01  4.3183102399482E-01
103  1.0200000000000E+00 -3.8396430954771E-02  6.9186900443866E-01  5.4153199309397E-01
104  1.0300000000000E+00 -2.5297275715993E-02  6.5854737806786E-01  6.4766330268259E-01
105  1.0400000000000E+00 -1.3511167644638E-02  6.2560662427160E-01  7.4930244749833E-01
106  1.0500000000000E+00 -3.0010641726387E-03  5.9313406844377E-01  8.4557835795082E-01
107  1.0600000000000E+00  6.2776179399138E-03  5.6121254188068E-01  9.3568245895020E-01
108  1.0700000000000E+00  1.4375946849243E-02  5.2991991109653E-01  1.0188789377494E+00
109  1.0800000000000E+00  2.1350426305339E-02  4.9932865226812E-01  1.0945140398846E+00
110  1.0900000000000E+00  2.7261966290559E-02  4.6950547583337E-01  1.1620242270158E+00
111  1.1000000000000E+00  3.2174886210993E-02  4.4051100567010E-01  1.2209430485531E+00
112  1.1100000000000E+00  3.6155962120461E-02  4.1239951660558E-01  1.2709066000855E+00
113  1.1200000000000E+00  3.9273528191341E-02  3.8521873326353E-01  1.3116574654465E+00
114  1.1300000000000E+00  4.1596641257293E-02  3.5900969245991E-01  1.3430470651687E+00
115  1.1400000000000E+00  4.3194315757134E-02  3.3380667051811E-01  1.3650363618158E+00
116  1.1500000000000E+00  4.4134834847553E-02  3.0963717601031E-01  1.3776949014454E+00
117  1.1600000000000E+00  4.4485141839429E-02  2.8652200755072E-01  1.3811981999916E+00
118  1.1700000000000E+00  4.4310314490864E-02  2.6447537538988E-01  1.3758235128360E+00
119  1.1800000000000E+00  4.3673123075085E-02  2.4350508469458E-01  1.3619440549820E+00
120  1.1900000000000E+00  4.2633671569637E-02  2.2361277756426E-01  1.3400217673394E+00
121  1.2000000000000E+00  4.1249119805785E-02  2.0479423004146E-01  1.3105987512833E+00
122  1.2100000000000E+00  3.9573482992927E-02  1.8703969963169E-01  1.2742875184703E+00
123  1.2200000000000E+00  3.7657503726060E-02  1.7033431817362E-01  1.2317602252812E+00
124  1.2300000000000E+00  3.5548590390934E-02  1.5465852429168E-01  1.1837370812190E+00
125  1.2400000000000E+00  3.3290814838765E-02  1.3998852913960E-01  1.1309741374879E+00
126  1.2500000000000E+00  3.0924961303972E-02  1.2629680870061E-01  1.0742506758985E+00
127  1.2600000000000E+00  2.8488617797618E-02  1.1355261555700E-01  1.0143564289405E+00
128  1.2700000000000E+00  2.6016300632772E-02  1.0172250277914E-01  9.5207886928036E-01
129  1.2800000000000E+00  2.3539602318388E-02  9.0770852410709E-02  8.8819081116378E-01
130  1.2900000000000E+00  2.1087352798224E-02  8.0660400942888E-02  8.2343856727243E-01
131  1.3000000000000E+00  1.8685783900830E-02  7.1352754170582E-02  7.5853090268612E-01
132  1.3100000000000E+00  1.6358686896946E-02  6.2808883904648E-02  6.9412902294888E-01
133  1.3200000000000E+00  1.4127553219666E-02  5.4989599169061E-02  6.3083782607605E-01
134  1.3300000000000E+00  1.2011688675823E-02  4.7855984733302E-02  5.6919863902929E-01
135  1.3400000000000E+00  1.0028291847307E-02  4.1369800109625E-02  5.0968364804050E-01
136  1.3500000000000E+00  8.1924878343043E-03  3.5493832475350E-02  4.5269221951997E-01
137  1.3600000000000E+00  6.5173090072358E-03  3.0192197349945E-02  3.9854929457449E-01
138  1.3700000000000E+00  5.0136149939509E-03  2.5430581257501E-02  3.4750602575861E-01
139  1.3800000000000E+00  3.6899447161825E-03  2.1176421027956E-02  2.9974280991557E-01
140  1.3900000000000E+00  2.5522938889992E-03  1.7399014827324E-02  2.5537485617977E-01
141  1.4000000000000E+00  1.6038156610874E-03  1.4069562854016E-02  2.1446035825500E-01
142  1.4100000000000E+00  8.4438887948182E-04  1.1161101482827E-02  1.7701213471785E-01
143  1.4200000000000E+00  2.7031792656234E-04  8.6484947578385E-03  1.4300883627272E-01
144  1.4300000000000E+00 -1.2792973029559E-04  6.5071658849592E-03  1.1243698067543E-01
145  1.4400000000000E+00 -3.7821823707745E-04  4.7046934876880E-03  8.5492528225677E-02
146  1.4500000000000E+00 -4.9576830033423E-04  3.2211093577487E-03  6.2124072823453E-02
147  1.4600000000000E+00 -4.9451823743914E-04  2.0425285299650E-03  4.2209811765367E-02
148  1.4700000000000E+00 -4.0063000892699E-04  1.1524254032603E-03  2.5776488569180E-02
149  1.4800000000000E+00 -2.5222505620360E-04  5.3191364586688E-04  1.3016432011894E-02
150  1.4900000000000E+00 -9.8231365898680E-05  1.5743710758725E-04  4.2560180254376E-03
151  1.5000000000000E+00 -8.3803414599044E-06  1.0211328919080E-05  3.1093077849978E-04
152  1.5100000000000E+00  1.3331620434841E-06 -1.4380742226253E-06 -4.6571325379280E-05
153  1.5200000000000E+00 -2.0893183591024E-07  2.5561683259289E-07  7.7785943771291E-06
154  1.53 -0. -0.  0.
155  1.54  0.  0.  0.
156  1.55  0.  0.  0.
157  1.56  0.  0.  0.
158  1.57  0.  0.  0.
159  1.58  0.  0.  0.
160  1.59  0.  0.  0.
161  1.60  0.  0.  0.
162  1.61  0.  0.  0.
163  1.62  0.  0.  0.
164  1.63  0.  0.  0.
165  1.64  0.  0.  0.
166  1.65  0.  0.  0.
167  1.66  0.  0.  0.
168  1.67  0.  0.  0.
169  1.68  0.  0.  0.
170  1.69  0.  0.  0.
171  1.70  0.  0.  0.
172  1.71  0.  0.  0.
173  1.72  0.  0.  0.
174  1.73  0.  0.  0.
175  1.74  0.  0.  0.
176  1.75  0.  0.  0.
177  1.76  0.  0.  0.
178  1.77  0.  0.  0.
179  1.78  0.  0.  0.
180  1.79  0.  0.  0.
181  1.80  0.  0.  0.
182  1.81  0.  0.  0.
183  1.82  0.  0.  0.
184  1.83  0.  0.  0.
185  1.84  0.  0.  0.
186  1.85  0.  0.  0.
187  1.86  0.  0.  0.
188  1.87  0.  0.  0.
189  1.88  0.  0.  0.
190  1.89  0.  0.  0.
191  1.90  0.  0.  0.
192  1.91  0.  0.  0.
193  1.92  0.  0.  0.
194  1.93  0.  0.  0.
195  1.94  0.  0.  0.
196  1.95  0.  0.  0.
197  1.96  0.  0.  0.
198  1.97  0.  0.  0.
199  1.98  0.  0.  0.
200  1.99  0.  0.  0.
201  2.00  0.  0.  0.
202  2.01  0.  0.  0.
203  2.02  0.  0.  0.
204  2.03  0.  0.  0.
205  2.04  0.  0.  0.
206  2.05  0.  0.  0.
207  2.06  0.  0.  0.
208  2.07  0.  0.  0.
209  2.08  0.  0.  0.
210  2.09  0.  0.  0.
211  2.10  0.  0.  0.
212  2.11  0.  0.  0.
213  2.12  0.  0.  0.
214  2.13  0.  0.  0.
215  2.14  0.  0.  0.
216  2.15  0.  0.  0.
217  2.16  0.  0.  0.
218  2.17  0.  0.  0.
219  2.18  0.  0.  0.
220  2.19  0.  0.  0.
221  2.20  0.  0.  0.
222  2.21  0.  0.  0.
223  2.22  0.  0.  0.
224  2.23  0.  0.  0.
225  2.24  0.  0.  0.
226  2.25  0.  0.  0.
227  2.26  0.  0.  0.
228  2.27  0.  0.  0.
229  2.28  0.  0.  0.
230  2.29  0.  0.  0.
231  2.30  0.  0.  0.
232  2.31  0.  0.  0.
233  2.32  0.  0.  0.
234  2.33  0.  0.  0.
235  2.34  0.  0.  0.
236  2.35  0.  0.  0.
237  2.36  0.  0.  0.
238  2.37  0.  0.  0.
239  2.38  0.  0.  0.
240  2.39  0.  0.  0.
241  2.40  0.  0.  0.
242  2.41  0.  0.  0.
243  2.42  0.  0.  0.
244  2.43  0.  0.  0.
245  2.44  0.  0.  0.
246  2.45  0.  0.  0.
247  2.46  0.  0.  0.
248  2.47  0.  0.  0.
249  2.48  0.  0.  0.
250  2.49  0.  0.  0.
251  2.50  0.  0.  0.
252  2.51  0.  0.  0.
253  2.52  0.  0.  0.
254  2.53  0.  0.  0.
255  2.54  0.  0.  0.
256  2.55  0.  0.  0.
257  2.56  0.  0.  0.
258  2.57  0.  0.  0.
259  2.58  0.  0.  0.
260  2.59  0.  0.  0.
261  2.60  0.  0.  0.
262  2.61  0.  0.  0.
263  2.62  0.  0.  0.
264  2.63  0.  0.  0.
265  2.64  0.  0.  0.
266  2.65  0.  0.  0.
267  2.66  0.  0.  0.
268  2.67  0.  0.  0.
269  2.68  0.  0.  0.
270  2.69  0.  0.  0.
271  2.70  0.  0.  0.
272  2.71  0.  0.  0.
273  2.72  0.  0.  0.
274  2.73  0.  0.  0.
275  2.74  0.  0.  0.
276  2.75  0.  0.  0.
277  2.76  0.  0.  0.
278  2.77  0.  0.  0.
279  2.78  0.  0.  0.
280  2.79  0.  0.  0.
281  2.80  0.  0.  0.
282  2.81  0.  0.  0.
283  2.82  0.  0.  0.
284  2.83  0.  0.  0.
285  2.84  0.  0.  0.
286  2.85  0.  0.  0.
287  2.86  0.  0.  0.
288  2.87  0.  0.  0.
289  2.88  0.  0.  0.
290  2.89  0.  0.  0.
291  2.90  0.  0.  0.
292  2.91  0.  0.  0.
293  2.92  0.  0.  0.
294  2.93  0.  0.  0.
295  2.94  0.  0.  0.
296  2.95  0.  0.  0.
297  2.96  0.  0.  0.
298  2.97  0.  0.  0.
299  2.98  0.  0.  0.
300  2.99  0.  0.  0.
301  3.00  0.  0.  0.
302  3.01  0.  0.  0.
303  3.02  0.  0.  0.
304  3.03  0.  0.  0.
305  3.04  0.  0.  0.
306  3.05  0.  0.  0.
307  3.06  0.  0.  0.
308  3.07  0.  0.  0.
309  3.08  0.  0.  0.
310  3.09  0.  0.  0.
311  3.10  0.  0.  0.
312  3.11  0.  0.  0.
313  3.12  0.  0.  0.
314  3.13  0.  0.  0.
315  3.14  0.  0.  0.
316  3.15  0.  0.  0.
317  3.16  0.  0.  0.
318  3.17  0.  0.  0.
319  3.18  0.  0.  0.
320  3.19  0.  0.  0.
321  3.20  0.  0.  0.
322  3.21  0.  0.  0.
323  3.22  0.  0.  0.
324  3.23  0.  0.  0.
325  3.24  0.  0.  0.
326  3.25  0.  0.  0.
327  3.26  0.  0.  0.
328  3.27  0.  0.  0.
329  3.28  0.  0.  0.
330  3.29  0.  0.  0.
331  3.30  0.  0.  0.
332  3.31  0.  0.  0.
333  3.32  0.  0.  0.
334  3.33  0.  0.  0.
335  3.34  0.  0.  0.
336  3.35  0.  0.  0.
337  3.36  0.  0.  0.
338  3.37  0.  0.  0.
339  3.38  0.  0.  0.
340  3.39  0.  0.  0.
341  3.40  0.  0.  0.
342  3.41  0.  0.  0.
343  3.42  0.  0.  0.
344  3.43  0.  0.  0.
345  3.44  0.  0.  0.
346  3.45  0.  0.  0.
347  3.46  0.  0.  0.
348  3.47  0.  0.  0.
349  3.48  0.  0.  0.
350  3.49  0.  0.  0.
351  3.50  0.  0.  0.
352  3.51  0.  0.  0.
353  3.52  0.  0.  0.
354  3.53  0.  0.  0.
355  3.54  0.  0.  0.
356  3.55  0.  0.  0.
357  3.56  0.  0.  0.
358  3.57  0.  0.  0.
359  3.58  0.  0.  0.
360  3.59  0.  0.  0.
361  3.60  0.  0.  0.
362  3.61  0.  0.  0.
363  3.62  0.  0.  0.
364  3.63  0.  0.  0.
365  3.64  0.  0.  0.
366  3.65  0.  0.  0.
367  3.66  0.  0.  0.
368  3.67  0.  0.  0.
369  3.68  0.  0.  0.
370  3.69  0.  0.  0.
371  3.70  0.  0.  0.
372  3.71  0.  0.  0.
373  3.72  0.  0.  0.
374  3.73  0.  0.  0.
375  3.74  0.  0.  0.
376  3.75  0.  0.  0.
377  3.76  0.  0.  0.
378  3.77  0.  0.  0.
379  3.78  0.  0.  0.
380  3.79  0.  0.  0.
381  3.80  0.  0.  0.
382  3.81  0.  0.  0.
383  3.82  0.  0.  0.
384  3.83  0.  0.  0.
385  3.84  0.  0.  0.
386  3.85  0.  0.  0.
387  3.86  0.  0.  0.
388  3.87  0.  0.  0.
389  3.88  0.  0.  0.
390  3.89  0.  0.  0.
391  3.90  0.  0.  0.
392  3.91  0.  0.  0.
393  3.92  0.  0.  0.
394  3.93  0.  0.  0.
395  3.94  0.  0.  0.
396  3.95  0.  0.  0.
397  3.96  0.  0.  0.
398  3.97  0.  0.  0.
399  3.98  0.  0.  0.
400  3.99  0.  0.  0.
401  4.00  0.  0.  0.
402  4.01  0.  0.  0.
403  4.02  0.  0.  0.
404  4.03  0.  0.  0.
405  4.04  0.  0.  0.
406  4.05  0.  0.  0.
407  4.06  0.  0.  0.
408  4.07  0.  0.  0.
409  4.08  0.  0.  0.
410  4.09  0.  0.  0.
411  4.10  0.  0.  0.
412  4.11  0.  0.  0.
413  4.12  0.  0.  0.
414  4.13  0.  0.  0.
415  4.14  0.  0.  0.
416  4.15  0.  0.  0.
417  4.16  0.  0.  0.
418  4.17  0.  0.  0.
419  4.18  0.  0.  0.
420  4.19  0.  0.  0.
421  4.20  0.  0.  0.
422  4.21  0.  0.  0.
423  4.22  0.  0.  0.
424  4.23  0.  0.  0.
425  4.24  0.  0.  0.
426  4.25  0.  0.  0.
427  4.26  0.  0.  0.
428  4.27  0.  0.  0.
429  4.28  0.  0.  0.
430  4.29  0.  0.  0.
431  4.30  0.  0.  0.
432  4.31  0.  0.  0.
433  4.32  0.  0.  0.
434  4.33  0.  0.  0.
435  4.34  0.  0.  0.
436  4.35  0.  0.  0.
437  4.36  0.  0.  0.
438  4.37  0.  0.  0.
439  4.38  0.  0.  0.
440  4.39  0.  0.  0.
441  4.40  0.  0.  0.
442  4.41  0.  0.  0.
443  4.42  0.  0.  0.
444  4.43  0.  0.  0.
445  4.44  0.  0.  0.
446  4.45  0.  0.  0.
447  4.46  0.  0.  0.
448  4.47  0.  0.  0.
449  4.48  0.  0.  0.
450  4.49  0.  0.  0.
451  4.50  0.  0.  0.
452  4.51  0.  0.  0.
453  4.52  0.  0.  0.
454  4.53  0.  0.  0.
455  4.54  0.  0.  0.
456  4.55  0.  0.  0.
457  4.56  0.  0.  0.
458  4.57  0.  0.  0.
459  4.58  0.  0.  0.
460  4.59  0.  0.  0.
461  4.60  0.  0.  0.
462  4.61  0.  0.  0.
463  4.62  0.  0.  0.
464  4.63  0.  0.  0.
465  4.64  0.  0.  0.
466  4.65  0.  0.  0.
467  4.66  0.  0.  0.
468  4.67  0.  0.  0.
469  4.68  0.  0.  0.
470  4.69  0.  0.  0.
471  4.70  0.  0.  0.
472  4.71  0.  0.  0.
473  4.72  0.  0.  0.
474  4.73  0.  0.  0.
475  4.74  0.  0.  0.
476  4.75  0.  0.  0.
477  4.76  0.  0.  0.
478  4.77  0.  0.  0.
479  4.78  0.  0.  0.
480  4.79  0.  0.  0.
481  4.80  0.  0.  0.
482  4.81  0.  0.  0.
483  4.82  0.  0.  0.
484  4.83  0.  0.  0.
485  4.84  0.  0.  0.
486  4.85  0.  0.  0.
487  4.86  0.  0.  0.
488  4.87  0.  0.  0.
489  4.88  0.  0.  0.
490  4.89  0.  0.  0.
491  4.90  0.  0.  0.
492  4.91  0.  0.  0.
493  4.92  0.  0.  0.
494  4.93  0.  0.  0.
495  4.94  0.  0.  0.
496  4.95  0.  0.  0.
497  4.96  0.  0.  0.
498  4.97  0.  0.  0.
499  4.98  0.  0.  0.
500  4.99  0.  0.  0.
501  5.00  0.  0.  0.
502  5.01  0.  0.  0.
503  5.02  0.  0.  0.
504  5.03  0.  0.  0.
505  5.04  0.  0.  0.
506  5.05  0.  0.  0.
507  5.06  0.  0.  0.
508  5.07  0.  0.  0.
509  5.08  0.  0.  0.
510  5.09  0.  0.  0.
511  5.10  0.  0.  0.
512  5.11  0.  0.  0.
513  5.12  0.  0.  0.
514  5.13  0.  0.  0.
515  5.14  0.  0.  0.
516  5.15  0.  0.  0.
517  5.16  0.  0.  0.
518  5.17  0.  0.  0.
519  5.18  0.  0.  0.
520  5.19  0.  0.  0.
521  5.20  0.  0.  0.
522  5.21  0.  0.  0.
523  5.22  0.  0.  0.
524  5.23  0.  0.  0.
525  5.24  0.  0.  0.
526  5.25  0.  0.  0.
527  5.26  0.  0.  0.
528  5.27  0.  0.  0.
529  5.28  0.  0.  0.
530  5.29  0.  0.  0.
531  5.30  0.  0.  0.
532  5.31  0.  0.  0.
533  5.32  0.  0.  0.
534  5.33  0.  0.  0.
535  5.34  0.  0.  0.
536  5.35  0.  0.  0.
537  5.36  0.  0.  0.
538  5.37  0.  0.  0.
539  5.38  0.  0.  0.
540  5.39  0.  0.  0.
541  5.40  0.  0.  0.
542  5.41  0.  0.  0.
543  5.42  0.  0.  0.
544  5.43  0.  0.  0.
545  5.44  0.  0.  0.
546  5.45  0.  0.  0.
547  5.46  0.  0.  0.
548  5.47  0.  0.  0.
549  5.48  0.  0.  0.
550  5.49  0.  0.  0.
551  5.50  0.  0.  0.
552  5.51  0.  0.  0.
553  5.52  0.  0.  0.
554  5.53  0.  0.  0.
555  5.54  0.  0.  0.
556  5.55  0.  0.  0.
557  5.56  0.  0.  0.
558  5.57  0.  0.  0.
559  5.58  0.  0.  0.
560  5.59  0.  0.  0.
561  5.60  0.  0.  0.
562  5.61  0.  0.  0.
563  5.62  0.  0.  0.
564  5.63  0.  0.  0.
565  5.64  0.  0.  0.
566  5.65  0.  0.  0.
567  5.66  0.  0.  0.
568  5.67  0.  0.  0.
569  5.68  0.  0.  0.
570  5.69  0.  0.  0.
571  5.70  0.  0.  0.
572  5.71  0.  0.  0.
573  5.72  0.  0.  0.
574  5.73  0.  0.  0.
575  5.74  0.  0.  0.
576  5.75  0.  0.  0.
577  5.76  0.  0.  0.
578  5.77  0.  0.  0.
579  5.78  0.  0.  0.
580  5.79  0.  0.  0.
581  5.80  0.  0.  0.
582  5.81  0.  0.  0.
583  5.82  0.  0.  0.
584  5.83  0.  0.  0.
585  5.84  0.  0.  0.
586  5.85  0.  0.  0.
587  5.86  0.  0.  0.
588  5.87  0.  0.  0.
589  5.88  0.  0.  0.
590  5.89  0.  0.  0.
591  5.90  0.  0.  0.
592  5.91  0.  0.  0.
593  5.92  0.  0.  0.
594  5.93  0.  0.  0.
595  5.94  0.  0.  0.
596  5.95  0.  0.  0.
597  5.96  0.  0.  0.
598  5.97  0.  0.  0.
599  5.98  0.  0.  0.
600  5.99  0.  0.  0.
1                         9.6820821962204E+00 -1.2372522644158E+00
1  0.0000000000000E+00  1.5121439933541E-09 -7.1363912920882E-10
2  1.0000000000000E-02  2.9913544800180E-03 -7.1847945504156E-06
3  2.0000000000000E-02  1.1945488780591E-02 -2.6688918846810E-05
4  3.0000000000000E-02  2.6802747268838E-02 -5.2384953403178E-05
5  4.0000000000000E-02  4.7464142418460E-02 -7.4137959427814E-05
6  5.0000000000000E-02  7.3792009953856E-02 -7.7920106902667E-05
7  6.0000000000000E-02  1.0561092075434E-01 -4.5968165123959E-05
8  7.0000000000000E-02  1.4270884422097E-01  4.3019049988076E-05
9  8.0000000000000E-02  1.8483855629642E-01  2.1364689114166E-04
10  9.0000000000000E-02  2.3171928381945E-01  4.9355900667801E-04
11  1.0000000000000E-01  2.8303857539385E-01  9.1314416040665E-04
12  1.1000000000000E-01  3.3845438746109E-01  1.5052209466846E-03
13  1.2000000000000E-01  3.9759737279344E-01  2.3047059046348E-03
14  1.3000000000000E-01  4.6007335717683E-01  3.3482707098315E-03
15  1.4000000000000E-01  5.2546598864129E-01  4.6739941659588E-03
16  1.5000000000000E-01  5.9333954223074E-01  6.3210146313469E-03
17  1.6000000000000E-01  6.6324186199754E-01  8.3291882989925E-03
18  1.7000000000000E-01  7.3470742067365E-01  1.0738758408551E-02
19  1.8000000000000E-01  8.0726047632540E-01  1.3590040013579E-02
20  1.9000000000000E-01  8.8041830425855E-01  1.6923124367809E-02
21  2.0000000000000E-01  9.5369448152168E-01  2.0777606344277E-02
22  2.1000000000000E-01  1.0266022005765E+00  2.5192337576341E-02
23  2.2000000000000E-01  1.0986575880795E+00  3.0205207227749E-02
24  2.3000000000000E-01  1.1693830042686E+00  3.5852951478924E-02
25  2.4000000000000E-01  1.2383102981854E+00  4.2170991978642E-02
26  2.5000000000000E-01  1.3049839939037E+00  4.9193302674773E-02
27  2.6000000000000E-01  1.3689643830899E+00  5.6952303625534E-02
28  2.7000000000000E-01  1.4298304996028E+00  6.5478779623808E-02
29  2.8000000000000E-01  1.4871829524533E+00  7.4801820760906E-02
30  2.9000000000000E-01  1.5406465943008E+00  8.4948781430769E-02
31  3.0000000000000E-01  1.5898730037549E+00  9.5945253747042E-02
32  3.1000000000000E-01  1.6345427610848E+00  1.0781505092794E-01
33  3.2000000000000E-01  1.6743674985078E+00  1.2058019590879E-01
34  3.3000000000000E-01  1.7090917080164E+00  1.3426091027844E-01
35  3.4000000000000E-01  1.7384942917124E+00  1.4887559860925E-01
36  3.5000000000000E-01  1.7623898418125E+00  1.6444082336336E-01
37  3.6000000000000E-01  1.7806296398672E+00  1.8097126581047E-01
38  3.7000000000000E-01  1.7931023672631E+00  1.9847966877953E-01
39  3.8000000000000E-01  1.7997345217321E+00  2.1697675758306E-01
40  3.9000000000000E-01  1.8004905373389E+00  2.3647113608585E-01
41  4.0000000000000E-01  1.7953726082342E+00  2.5696915562922E-01
42  4.1000000000000E-01  1.7844202193039E+00  2.7847475534981E-01
43  4.2000000000000E-01  1.7677093896833E+00  3.0098927333195E-01
44  4.3000000000000E-01  1.7453516379043E+00  3.2451122898361E-01
45  4.4000000000000E-01  1.7174926801618E+00  3.4903607800845E-01
46  4.5000000000000E-01  1.6843108757935E+00  3.7455594233566E-01
47  4.6000000000000E-01  1.6460154365235E+00  4.0105931834517E-01
48  4.7000000000000E-01  1.6028444182939E+00  4.2853076766270E-01
49  4.8000000000000E-01  1.5550625165710E+00  4.5695059567664E-01
50  4.9000000000000E-01  1.5029586878264E+00  4.8629452372420E-01
51  5.0000000000000E-01  1.4468436214453E+00  5.1653336158774E-01
52  5.1000000000000E-01  1.3870470875712E+00  5.4763268751596E-01
53  5.2000000000000E-01  1.3239151873479E+00  5.7955254342172E-01
54  5.3000000000000E-01  1.2578075326478E+00  6.1224715319633E-01
55  5.4000000000000E-01  1.1890943826818E+00  6.4566467220837E-01
56  5.5000000000000E-01  1.1181537648483E+00  6.7974697601605E-01
57  5.6000000000000E-01  1.0453686068242E+00  7.1442949611288E-01
58  5.7000000000000E-01  9.7112390621245E-01  7.4964111014571E-01
59  5.8000000000000E-01  8.9580396306613E-01  7.8530409349631E-01
60  5.9000000000000E-01  8.1978969931802E-01  8.2133413840862E-01
61  6.0000000000000E-01  7.4345608758190E-01  8.5764044598482E-01
62  6.1000000000000E-01  6.6716970997887E-01  8.9412589537665E-01
63  6.2000000000000E-01  5.9128646561237E-01  9.3068729338219E-01
64  6.3000000000000E-01  5.1614944309941E-01  9.6721570644011E-01
65  6.4000000000000E-01  4.4208697219812E-01  1.0035968757159E+00
66  6.5000000000000E-01  3.6941086609148E-01  1.0397117146209E+00
67  6.6000000000000E-01  2.9841486333148E-01  1.0754368867199E+00
68  6.7000000000000E-01  2.2937327585753E-01  1.1106454605921E+00
69  6.8000000000000E-01  1.6253984691629E-01  1.1452076368416E+00
70  6.9000000000000E-01  9.8146820166616E-02  1.1789915411298E+00
71  7.0000000000000E-01  3.6404218790773E-02  1.2118640758533E+00
72  7.1000000000000E-01 -2.2500668914250E-02  1.2436918219376E+00
73  7.2000000000000E-01 -7.8403603188873E-02  1.2743419811857E+00
74  7.3000000000000E-01 -1.3116351344945E-01  1.3036833487280E+00
75  7.4000000000000E-01 -1.8066243547045E-01  1.3315873043892E+00
76  7.5000000000000E-01 -2.2680527625534E-01  1.3579288112303E+00
77  7.6000000000000E-01 -2.6951941908525E-01  1.3825874091541E+00
78  7.7000000000000E-01 -3.0875418232125E-01  1.4054481912876E+00
79  7.8000000000000E-01 -3.4448014635909E-01  1.4264027508841E+00
80  7.9000000000000E-01 -3.7668836369085E-01  1.4453500867132E+00
81  8.0000000000000E-01 -4.0538946731853E-01  1.4621974553413E+00
82  8.1000000000000E-01 -4.3061269279805E-01  1.4768611593232E+00
83  8.2000000000000E-01 -4.5240482897909E-01  1.4892672611374E+00
84  8.3000000000000E-01 -4.7082911206421E-01  1.4993522136714E+00
85  8.4000000000000E-01 -4.8596407695873E-01  1.5070633991975E+00
86  8.5000000000000E-01 -4.9790237904576E-01  1.5123595700450E+00
87  8.6000000000000E-01 -5.0674959852425E-01  1.5152111855509E+00
88  8.7000000000000E-01 -5.1262303832227E-01  1.5156006413425E+00
89  8.8000000000000E-01 -5.1565052537283E-01  1.5135223885273E+00
90  8.9000000000000E-01 -5.1596922374853E-01  1.5089829419348E+00
91  9.0000000000000E-01 -5.1372446682568E-01  1.5020007781228E+00
92  9.1000000000000E-01 -5.0906861432171E-01  1.4926061254120E+00
93  9.2000000000000E-01 -5.0215993875204E-01  1.4808406497155E+00
94  9.3000000000000E-01 -4.9316154461472E-01  1.4667570413584E+00
95  9.4000000000000E-01 -4.8224032246010E-01  1.4504185094129E+00
96  9.5000000000000E-01 -4.6956593896383E-01  1.4318981912790E+00