Sg    ONCVPSP-4.0.1  r_core=   1.10583   1.30748   1.20244   1.20244
106.0000     46.0000      231012    zatom,zion,pspd
8 -116133   3     4   600     0    pspcod,pspxc,lmax,lloc,mmax,r2well
5.99000000  5.00000000  0.00000000    rchrg fchrg qchrg
3     3     2     2    nproj
3     1           extension_switch
4     3     3    nprojso
0                         2.0554336818725E+01 -1.0628426178348E+01 -3.5172857686971E-01
1  0.0000000000000E+00 -2.4866976033877E-08  6.4506711083823E-10  5.5245825469896E-08
2  1.0000000000000E-02  2.1341601310261E-01  5.1371510459729E-02 -6.0109819038755E-02
3  2.0000000000000E-02  4.2462261572483E-01  1.0275361653522E-01 -1.1905921763001E-01
4  3.0000000000000E-02  6.3143802296979E-01  1.5415584928004E-01 -1.7571543960605E-01
5  4.0000000000000E-02  8.3173529921618E-01  2.0558562453804E-01 -2.2900040304798E-01
6  5.0000000000000E-02  1.0234687845032E+00  2.5704721995676E-01 -2.7791641607461E-01
7  6.0000000000000E-02  1.2046993410405E+00  3.0854079307495E-01 -3.2156998721365E-01
8  7.0000000000000E-02  1.3736180562863E+00  3.6006145340364E-01 -3.5919316143257E-01
9  8.0000000000000E-02  1.5285680639044E+00  4.1159840077554E-01 -3.9016186815238E-01
10  9.0000000000000E-02  1.6680641742257E+00  4.6313414145056E-01 -4.1401083473000E-01
11  1.0000000000000E-01  1.7908100411076E+00  5.1464379254950E-01 -4.3044469672773E-01
12  1.1000000000000E-01  1.8957126317182E+00  5.6609448435625E-01 -4.3934502328685E-01
13  1.2000000000000E-01  1.9818938091066E+00  6.1744486889565E-01 -4.4077307036673E-01
14  1.3000000000000E-01  2.0486988837286E+00  6.6864474197564E-01 -4.3496817455516E-01
15  1.4000000000000E-01  2.0957020385818E+00  7.1963478459294E-01 -4.2234180347608E-01
16  1.5000000000000E-01  2.1227085824312E+00  7.7034642825699E-01 -4.0346738321688E-01
17  1.6000000000000E-01  2.1297540359070E+00  8.2070184740153E-01 -3.7906612626985E-01
18  1.7000000000000E-01  2.1171001051424E+00  8.7061408064180E-01 -3.4998918273285E-01
19  1.8000000000000E-01  2.0852276462041E+00  9.1998728120969E-01 -3.1719653045816E-01
20  1.9000000000000E-01  2.0348267699790E+00  9.6871709547242E-01 -2.8173310400109E-01
21  2.0000000000000E-01  1.9667842805884E+00  1.0166911670230E+00 -2.4470273527294E-01
22  2.1000000000000E-01  1.8821686800105E+00  1.0637897624334E+00 -2.0724053858053E-01
23  2.2000000000000E-01  1.7822130066987E+00  1.1098865133936E+00 -1.7048441734035E-01
24  2.3000000000000E-01  1.6682958059564E+00  1.1548492686310E+00 -1.3554639761683E-01
25  2.4000000000000E-01  1.5419205541413E+00  1.1985410477229E+00 -1.0348450358795E-01
26  2.5000000000000E-01  1.4046938770197E+00  1.2408210876939E+00 -7.5275881355300E-02
27  2.6000000000000E-01  1.2583029144859E+00  1.2815459721308E+00 -5.1791850000948E-02
28  2.7000000000000E-01  1.1044921892598E+00  1.3205708314733E+00 -3.3775512755161E-02
29  2.8000000000000E-01  9.4504033606912E-01  1.3577506021477E+00 -2.1822497477345E-02
30  2.9000000000000E-01  7.8173704034640E-01  1.3929413313258E+00 -1.6365315811985E-02
31  3.0000000000000E-01  6.1636052189550E-01  1.4260015133192E+00 -1.7661736322521E-02
32  3.1000000000000E-01  4.5065587972044E-01  1.4567934429793E+00 -2.5787461134144E-02
33  3.2000000000000E-01  2.8631458978388E-01  1.4851845709720E+00 -4.0633281018324E-02
34  3.3000000000000E-01  1.2495541851721E-01  1.5110488454625E+00 -6.1906763711222E-02
35  3.4000000000000E-01 -3.1893017832694E-02  1.5342680245773E+00 -8.9138408103631E-02
36  3.5000000000000E-01 -1.8280785365915E-01  1.5547329440338E+00 -1.2169207644234E-01
37  3.6000000000000E-01 -3.2648557775072E-01  1.5723447245498E+00 -1.5877940155799E-01
38  3.7000000000000E-01 -4.6175352295351E-01  1.5870159040756E+00 -1.9947775998065E-01
39  3.8000000000000E-01 -5.8757916383032E-01  1.5986714805365E+00 -2.4275130800838E-01
40  3.9000000000000E-01 -7.0307718339780E-01  1.6072498516382E+00 -2.8747449936894E-01
41  4.0000000000000E-01 -8.0751430771060E-01  1.6127036393693E+00 -3.3245744262354E-01
42  4.1000000000000E-01 -9.0031194269743E-01  1.6150003881247E+00 -3.7647241587437E-01
43  4.2000000000000E-01 -9.8104668058059E-01  1.6141231268686E+00 -4.1828083697959E-01
44  4.3000000000000E-01 -1.0494487728713E+00  1.6100707874233E+00 -4.5665998994266E-01
45  4.4000000000000E-01 -1.1053986928908E+00  1.6028584728080E+00 -4.9042883227246E-01
46  4.5000000000000E-01 -1.1489219327064E+00  1.5925175715096E+00 -5.1847225298239E-01
47  4.6000000000000E-01 -1.1801821971129E+00  1.5790957156358E+00 -5.3976321482615E-01
48  4.7000000000000E-01 -1.1994731707751E+00  1.5626565830199E+00 -5.5338229500531E-01
49  4.8000000000000E-01 -1.2072090439466E+00  1.5432795454968E+00 -5.5853423293492E-01
50  4.9000000000000E-01 -1.2039139874811E+00  1.5210591676888E+00 -5.5456119822870E-01
51  5.0000000000000E-01 -1.1902107694431E+00  1.4961045627029E+00 -5.4095260297136E-01
52  5.1000000000000E-01 -1.1668087038654E+00  1.4685386130839E+00 -5.1735139549738E-01
53  5.2000000000000E-01 -1.1344911175486E+00  1.4384970671703E+00 -4.8355688404353E-01
54  5.3000000000000E-01 -1.0941025137181E+00  1.4061275225982E+00 -4.3952424371584E-01
55  5.4000000000000E-01 -1.0465356023598E+00  1.3715883100800E+00 -3.8536095530671E-01
56  5.5000000000000E-01 -9.9271835665173E-01  1.3350472917033E+00 -3.2132050616788E-01
57  5.6000000000000E-01 -9.3360124358355E-01  1.2966805888367E+00 -2.4779374865851E-01
58  5.7000000000000E-01 -8.7014476503977E-01  1.2566712552744E+00 -1.6529835840984E-01
59  5.8000000000000E-01 -8.0330743372271E-01  1.2152079114934E+00 -7.4466861297861E-02
60  5.9000000000000E-01 -7.3403429660110E-01  1.1724833558425E+00  2.3966296032076E-02
61  6.0000000000000E-01 -6.6324610733739E-01  1.1286931681292E+00  1.2917817175326E-01
62  6.1000000000000E-01 -5.9182923850929E-01  1.0840343204561E+00  2.4027082406348E-01
63  6.2000000000000E-01 -5.2062641445757E-01  1.0387038092933E+00  3.5628450072858E-01
64  6.3000000000000E-01 -4.5042833623554E-01  9.9289732169907E-01  4.7621021355186E-01
65  6.4000000000000E-01 -3.8196626129828E-01  9.4680794736187E-01  5.9900146548093E-01
66  6.5000000000000E-01 -3.1590559208207E-01  9.0062494676846E-01  7.2358498254888E-01
67  6.6000000000000E-01 -2.5284051926465E-01  8.5453258436152E-01  8.4887039041307E-01
68  6.7000000000000E-01 -1.9328975701168E-01  8.0870903408002E-01  9.7375886147471E-01
69  6.8000000000000E-01 -1.3769339863846E-01  7.6332536322771E-01  1.0971508389868E+00
70  6.9000000000000E-01 -8.6410911593510E-02  7.1854459923377E-01  1.2179530150027E+00
71  7.0000000000000E-01 -3.9720280274151E-02  6.7452088259719E-01  1.3350847956451E+00
72  7.1000000000000E-01  2.1817062598052E-03  6.3139870817735E-01  1.4474845268081E+00
73  7.2000000000000E-01  3.9178037208827E-02  5.8931225603615E-01  1.5541157735439E+00
74  7.3000000000000E-01  7.1228962909052E-02  5.4838481226991E-01  1.6539739454840E+00
75  7.4000000000000E-01  9.8368421866682E-02  5.0872827970156E-01  1.7460935380856E+00
76  7.5000000000000E-01  1.2069947198935E-01  4.7044277793533E-01  1.8295562157335E+00
77  7.6000000000000E-01  1.3838880254657E-01  4.3361633209451E-01  1.9034998992781E+00
78  7.7000000000000E-01  1.5166042017908E-01  3.9832464954862E-01  1.9671289399729E+00
79  7.8000000000000E-01  1.6078861889108E-01  3.6463098405822E-01  2.0197253675058E+00
80  7.9000000000000E-01  1.6609035986383E-01  3.3258608698651E-01  2.0606610962036E+00
81  8.0000000000000E-01  1.6791720152335E-01  3.0222824550221E-01  2.0894108655588E+00
82  8.1000000000000E-01  1.6664693295046E-01  2.7358340797974E-01  2.1055655844697E+00
83  8.2000000000000E-01  1.6267507379794E-01  2.4666539703889E-01  2.1088456487559E+00
84  8.3000000000000E-01  1.5640641075629E-01  2.2147621080690E-01  2.0991137144175E+00
85  8.4000000000000E-01  1.4824674372087E-01  1.9800641298219E-01  2.0763863402751E+00
86  8.5000000000000E-01  1.3859501366455E-01  1.7623561208701E-01  2.0408438681808E+00
87  8.6000000000000E-01  1.2783597843046E-01  1.5613302987948E-01  1.9928378912695E+00
88  8.7000000000000E-01  1.1633359197650E-01  1.3765815822655E-01  1.9328956741609E+00
89  8.8000000000000E-01  1.0442522692702E-01  1.2076150280022E-01  1.8617209359441E+00
90  8.9000000000000E-01  9.2416859687334E-02  1.0538541074656E-01  1.7801904882002E+00
91  9.0000000000000E-01  8.0579312098948E-02  9.1464977997452E-02  1.6893463359118E+00
92  9.1000000000000E-01  6.9145614087509E-02  7.8929030171396E-02  1.5903829971086E+00
93  9.2000000000000E-01  5.8309518584290E-02  6.7701169075572E-02  1.4846299743114E+00
94  9.3000000000000E-01  4.8225163954714E-02  5.7700874725135E-02  1.3735295127636E+00
95  9.4000000000000E-01  3.9007841162142E-02  4.8844650595088E-02  1.2586100012854E+00
96  9.5000000000000E-01  3.0735783961084E-02  4.1047197583117E-02  1.1414556045961E+00
97  9.6000000000000E-01  2.3452861689865E-02  3.4222599964006E-02  1.0236729534151E+00
98  9.7000000000000E-01  1.7172016872901E-02  2.8285504536314E-02  9.0685595251721E-01
99  9.8000000000000E-01  1.1879255058272E-02  2.3152272282151E-02  7.9254998861228E-01
100  9.9000000000000E-01  7.5379632499746E-03  1.8742080260314E-02  6.8221702115298E-01
101  1.0000000000000E+00  4.0933070410091E-03  1.4977950207083E-02  5.7720321188777E-01
102  1.0100000000000E+00  1.4764360648390E-03  1.1787679494265E-02  4.7871088598929E-01
103  1.0200000000000E+00 -3.9178650730032E-04  9.1046497483482E-03  3.8777671250121E-01
104  1.0300000000000E+00 -1.5978191807225E-03  6.8684897020447E-03  3.0525802744490E-01
105  1.0400000000000E+00 -2.2335716829937E-03  5.0255513512629E-03  2.3182944963576E-01
106  1.0500000000000E+00 -2.3958513090943E-03  3.5292268005104E-03  1.6799129551599E-01
107  1.0600000000000E+00 -2.2006494978563E-03  2.3320567787241E-03  1.1416843993414E-01
108  1.0700000000000E+00 -1.7496677505626E-03  1.3992905664234E-03  7.0550891091409E-02
109  1.0800000000000E+00 -1.1444967003940E-03  7.1463318987370E-04  3.7179253668899E-02
110  1.0900000000000E+00 -5.2857476128726E-04  2.6409666325760E-04  1.4216683674463E-02
111  1.1000000000000E+00 -8.7916264671517E-05  3.5795716165916E-05  2.0006464969877E-03
112  1.1100000000000E+00  4.7426610042576E-06 -1.6815898285690E-06 -9.7118889065460E-05
113  1.1200000000000E+00  1.2885691492538E-07 -5.3058159606165E-08 -2.9681730897843E-06
114  1.13  0.  0.  0.
115  1.14  0.  0.  0.
116  1.15  0.  0.  0.
117  1.16  0.  0.  0.
118  1.17  0.  0.  0.
119  1.18  0.  0.  0.
120  1.19  0.  0.  0.
121  1.20  0.  0.  0.
122  1.21  0.  0.  0.
123  1.22  0.  0.  0.
124  1.23  0.  0.  0.
125  1.24  0.  0.  0.
126  1.25  0.  0.  0.
127  1.26  0.  0.  0.
128  1.27  0.  0.  0.
129  1.28  0.  0.  0.
130  1.29  0.  0.  0.
131  1.30  0.  0.  0.
132  1.31  0.  0.  0.
133  1.32  0.  0.  0.
134  1.33  0.  0.  0.
135  1.34  0.  0.  0.
136  1.35  0.  0.  0.
137  1.36  0.  0.  0.
138  1.37  0.  0.  0.
139  1.38  0.  0.  0.
140  1.39  0.  0.  0.
141  1.40  0.  0.  0.
142  1.41  0.  0.  0.
143  1.42  0.  0.  0.
144  1.43  0.  0.  0.
145  1.44  0.  0.  0.
146  1.45  0.  0.  0.
147  1.46  0.  0.  0.
148  1.47  0.  0.  0.
149  1.48  0.  0.  0.
150  1.49  0.  0.  0.
151  1.50  0.  0.  0.
152  1.51  0.  0.  0.
153  1.52  0.  0.  0.
154  1.53  0.  0.  0.
155  1.54  0.  0.  0.
156  1.55  0.  0.  0.
157  1.56  0.  0.  0.
158  1.57  0.  0.  0.
159  1.58  0.  0.  0.
160  1.59  0.  0.  0.
161  1.60  0.  0.  0.
162  1.61  0.  0.  0.
163  1.62  0.  0.  0.
164  1.63  0.  0.  0.
165  1.64  0.  0.  0.
166  1.65  0.  0.  0.
167  1.66  0.  0.  0.
168  1.67  0.  0.  0.
169  1.68  0.  0.  0.
170  1.69  0.  0.  0.
171  1.70  0.  0.  0.
172  1.71  0.  0.  0.
173  1.72  0.  0.  0.
174  1.73  0.  0.  0.
175  1.74  0.  0.  0.
176  1.75  0.  0.  0.
177  1.76  0.  0.  0.
178  1.77  0.  0.  0.
179  1.78  0.  0.  0.
180  1.79  0.  0.  0.
181  1.80  0.  0.  0.
182  1.81  0.  0.  0.
183  1.82  0.  0.  0.
184  1.83  0.  0.  0.
185  1.84  0.  0.  0.
186  1.85  0.  0.  0.
187  1.86  0.  0.  0.
188  1.87  0.  0.  0.
189  1.88  0.  0.  0.
190  1.89  0.  0.  0.
191  1.90  0.  0.  0.
192  1.91  0.  0.  0.
193  1.92  0.  0.  0.
194  1.93  0.  0.  0.
195  1.94  0.  0.  0.
196  1.95  0.  0.  0.
197  1.96  0.  0.  0.
198  1.97  0.  0.  0.
199  1.98  0.  0.  0.
200  1.99  0.  0.  0.
201  2.00  0.  0.  0.
202  2.01  0.  0.  0.
203  2.02  0.  0.  0.
204  2.03  0.  0.  0.
205  2.04  0.  0.  0.
206  2.05  0.  0.  0.
207  2.06  0.  0.  0.
208  2.07  0.  0.  0.
209  2.08  0.  0.  0.
210  2.09  0.  0.  0.
211  2.10  0.  0.  0.
212  2.11  0.  0.  0.
213  2.12  0.  0.  0.
214  2.13  0.  0.  0.
215  2.14  0.  0.  0.
216  2.15  0.  0.  0.
217  2.16  0.  0.  0.
218  2.17  0.  0.  0.
219  2.18  0.  0.  0.
220  2.19  0.  0.  0.
221  2.20  0.  0.  0.
222  2.21  0.  0.  0.
223  2.22  0.  0.  0.
224  2.23  0.  0.  0.
225  2.24  0.  0.  0.
226  2.25  0.  0.  0.
227  2.26  0.  0.  0.
228  2.27  0.  0.  0.
229  2.28  0.  0.  0.
230  2.29  0.  0.  0.
231  2.30  0.  0.  0.
232  2.31  0.  0.  0.
233  2.32  0.  0.  0.
234  2.33  0.  0.  0.
235  2.34  0.  0.  0.
236  2.35  0.  0.  0.
237  2.36  0.  0.  0.
238  2.37  0.  0.  0.
239  2.38  0.  0.  0.
240  2.39  0.  0.  0.
241  2.40  0.  0.  0.
242  2.41  0.  0.  0.
243  2.42  0.  0.  0.
244  2.43  0.  0.  0.
245  2.44  0.  0.  0.
246  2.45  0.  0.  0.
247  2.46  0.  0.  0.
248  2.47  0.  0.  0.
249  2.48  0.  0.  0.
250  2.49  0.  0.  0.
251  2.50  0.  0.  0.
252  2.51  0.  0.  0.
253  2.52  0.  0.  0.
254  2.53  0.  0.  0.
255  2.54  0.  0.  0.
256  2.55  0.  0.  0.
257  2.56  0.  0.  0.
258  2.57  0.  0.  0.
259  2.58  0.  0.  0.
260  2.59  0.  0.  0.
261  2.60  0.  0.  0.
262  2.61  0.  0.  0.
263  2.62  0.  0.  0.
264  2.63  0.  0.  0.
265  2.64  0.  0.  0.
266  2.65  0.  0.  0.
267  2.66  0.  0.  0.
268  2.67  0.  0.  0.
269  2.68  0.  0.  0.
270  2.69  0.  0.  0.
271  2.70  0.  0.  0.
272  2.71  0.  0.  0.
273  2.72  0.  0.  0.
274  2.73  0.  0.  0.
275  2.74  0.  0.  0.
276  2.75  0.  0.  0.
277  2.76  0.  0.  0.
278  2.77  0.  0.  0.
279  2.78  0.  0.  0.
280  2.79  0.  0.  0.
281  2.80  0.  0.  0.
282  2.81  0.  0.  0.
283  2.82  0.  0.  0.
284  2.83  0.  0.  0.
285  2.84  0.  0.  0.
286  2.85  0.  0.  0.
287  2.86  0.  0.  0.
288  2.87  0.  0.  0.
289  2.88  0.  0.  0.
290  2.89  0.  0.  0.
291  2.90  0.  0.  0.
292  2.91  0.  0.  0.
293  2.92  0.  0.  0.
294  2.93  0.  0.  0.
295  2.94  0.  0.  0.
296  2.95  0.  0.  0.
297  2.96  0.  0.  0.
298  2.97  0.  0.  0.
299  2.98  0.  0.  0.
300  2.99  0.  0.  0.
301  3.00  0.  0.  0.
302  3.01  0.  0.  0.
303  3.02  0.  0.  0.
304  3.03  0.  0.  0.
305  3.04  0.  0.  0.
306  3.05  0.  0.  0.
307  3.06  0.  0.  0.
308  3.07  0.  0.  0.
309  3.08  0.  0.  0.
310  3.09  0.  0.  0.
311  3.10  0.  0.  0.
312  3.11  0.  0.  0.
313  3.12  0.  0.  0.
314  3.13  0.  0.  0.
315  3.14  0.  0.  0.
316  3.15  0.  0.  0.
317  3.16  0.  0.  0.
318  3.17  0.  0.  0.
319  3.18  0.  0.  0.
320  3.19  0.  0.  0.
321  3.20  0.  0.  0.
322  3.21  0.  0.  0.
323  3.22  0.  0.  0.
324  3.23  0.  0.  0.
325  3.24  0.  0.  0.
326  3.25  0.  0.  0.
327  3.26  0.  0.  0.
328  3.27  0.  0.  0.
329  3.28  0.  0.  0.
330  3.29  0.  0.  0.
331  3.30  0.  0.  0.
332  3.31  0.  0.  0.
333  3.32  0.  0.  0.
334  3.33  0.  0.  0.
335  3.34  0.  0.  0.
336  3.35  0.  0.  0.
337  3.36  0.  0.  0.
338  3.37  0.  0.  0.
339  3.38  0.  0.  0.
340  3.39  0.  0.  0.
341  3.40  0.  0.  0.
342  3.41  0.  0.  0.
343  3.42  0.  0.  0.
344  3.43  0.  0.  0.
345  3.44  0.  0.  0.
346  3.45  0.  0.  0.
347  3.46  0.  0.  0.
348  3.47  0.  0.  0.
349  3.48  0.  0.  0.
350  3.49  0.  0.  0.
351  3.50  0.  0.  0.
352  3.51  0.  0.  0.
353  3.52  0.  0.  0.
354  3.53  0.  0.  0.
355  3.54  0.  0.  0.
356  3.55  0.  0.  0.
357  3.56  0.  0.  0.
358  3.57  0.  0.  0.
359  3.58  0.  0.  0.
360  3.59  0.  0.  0.
361  3.60  0.  0.  0.
362  3.61  0.  0.  0.
363  3.62  0.  0.  0.
364  3.63  0.  0.  0.
365  3.64  0.  0.  0.
366  3.65  0.  0.  0.
367  3.66  0.  0.  0.
368  3.67  0.  0.  0.
369  3.68  0.  0.  0.
370  3.69  0.  0.  0.
371  3.70  0.  0.  0.
372  3.71  0.  0.  0.
373  3.72  0.  0.  0.
374  3.73  0.  0.  0.
375  3.74  0.  0.  0.
376  3.75  0.  0.  0.
377  3.76  0.  0.  0.
378  3.77  0.  0.  0.
379  3.78  0.  0.  0.
380  3.79  0.  0.  0.
381  3.80  0.  0.  0.
382  3.81  0.  0.  0.
383  3.82  0.  0.  0.
384  3.83  0.  0.  0.
385  3.84  0.  0.  0.
386  3.85  0.  0.  0.
387  3.86  0.  0.  0.
388  3.87  0.  0.  0.
389  3.88  0.  0.  0.
390  3.89  0.  0.  0.
391  3.90  0.  0.  0.
392  3.91  0.  0.  0.
393  3.92  0.  0.  0.
394  3.93  0.  0.  0.
395  3.94  0.  0.  0.
396  3.95  0.  0.  0.
397  3.96  0.  0.  0.
398  3.97  0.  0.  0.
399  3.98  0.  0.  0.
400  3.99  0.  0.  0.
401  4.00  0.  0.  0.
402  4.01  0.  0.  0.
403  4.02  0.  0.  0.
404  4.03  0.  0.  0.
405  4.04  0.  0.  0.
406  4.05  0.  0.  0.
407  4.06  0.  0.  0.
408  4.07  0.  0.  0.
409  4.08  0.  0.  0.
410  4.09  0.  0.  0.
411  4.10  0.  0.  0.
412  4.11  0.  0.  0.
413  4.12  0.  0.  0.
414  4.13  0.  0.  0.
415  4.14  0.  0.  0.
416  4.15  0.  0.  0.
417  4.16  0.  0.  0.
418  4.17  0.  0.  0.
419  4.18  0.  0.  0.
420  4.19  0.  0.  0.
421  4.20  0.  0.  0.
422  4.21  0.  0.  0.
423  4.22  0.  0.  0.
424  4.23  0.  0.  0.
425  4.24  0.  0.  0.
426  4.25  0.  0.  0.
427  4.26  0.  0.  0.
428  4.27  0.  0.  0.
429  4.28  0.  0.  0.
430  4.29  0.  0.  0.
431  4.30  0.  0.  0.
432  4.31  0.  0.  0.
433  4.32  0.  0.  0.
434  4.33  0.  0.  0.
435  4.34  0.  0.  0.
436  4.35  0.  0.  0.
437  4.36  0.  0.  0.
438  4.37  0.  0.  0.
439  4.38  0.  0.  0.
440  4.39  0.  0.  0.
441  4.40  0.  0.  0.
442  4.41  0.  0.  0.
443  4.42  0.  0.  0.
444  4.43  0.  0.  0.
445  4.44  0.  0.  0.
446  4.45  0.  0.  0.
447  4.46  0.  0.  0.
448  4.47  0.  0.  0.
449  4.48  0.  0.  0.
450  4.49  0.  0.  0.
451  4.50  0.  0.  0.
452  4.51  0.  0.  0.
453  4.52  0.  0.  0.
454  4.53  0.  0.  0.
455  4.54  0.  0.  0.
456  4.55  0.  0.  0.
457  4.56  0.  0.  0.
458  4.57  0.  0.  0.
459  4.58  0.  0.  0.
460  4.59  0.  0.  0.
461  4.60  0.  0.  0.
462  4.61  0.  0.  0.
463  4.62  0.  0.  0.
464  4.63  0.  0.  0.
465  4.64  0.  0.  0.
466  4.65  0.  0.  0.
467  4.66  0.  0.  0.
468  4.67  0.  0.  0.
469  4.68  0.  0.  0.
470  4.69  0.  0.  0.
471  4.70  0.  0.  0.
472  4.71  0.  0.  0.
473  4.72  0.  0.  0.
474  4.73  0.  0.  0.
475  4.74  0.  0.  0.
476  4.75  0.  0.  0.
477  4.76  0.  0.  0.
478  4.77  0.  0.  0.
479  4.78  0.  0.  0.
480  4.79  0.  0.  0.
481  4.80  0.  0.  0.
482  4.81  0.  0.  0.
483  4.82  0.  0.  0.
484  4.83  0.  0.  0.
485  4.84  0.  0.  0.
486  4.85  0.  0.  0.
487  4.86  0.  0.  0.
488  4.87  0.  0.  0.
489  4.88  0.  0.  0.
490  4.89  0.  0.  0.
491  4.90  0.  0.  0.
492  4.91  0.  0.  0.
493  4.92  0.  0.  0.
494  4.93  0.  0.  0.
495  4.94  0.  0.  0.
496  4.95  0.  0.  0.
497  4.96  0.  0.  0.
498  4.97  0.  0.  0.
499  4.98  0.  0.  0.
500  4.99  0.  0.  0.
501  5.00  0.  0.  0.
502  5.01  0.  0.  0.
503  5.02  0.  0.  0.
504  5.03  0.  0.  0.
505  5.04  0.  0.  0.
506  5.05  0.  0.  0.
507  5.06  0.  0.  0.
508  5.07  0.  0.  0.
509  5.08  0.  0.  0.
510  5.09  0.  0.  0.
511  5.10  0.  0.  0.
512  5.11  0.  0.  0.
513  5.12  0.  0.  0.
514  5.13  0.  0.  0.
515  5.14  0.  0.  0.
516  5.15  0.  0.  0.
517  5.16  0.  0.  0.
518  5.17  0.  0.  0.
519  5.18  0.  0.  0.
520  5.19  0.  0.  0.
521  5.20  0.  0.  0.
522  5.21  0.  0.  0.
523  5.22  0.  0.  0.
524  5.23  0.  0.  0.
525  5.24  0.  0.  0.
526  5.25  0.  0.  0.
527  5.26  0.  0.  0.
528  5.27  0.  0.  0.
529  5.28  0.  0.  0.
530  5.29  0.  0.  0.
531  5.30  0.  0.  0.
532  5.31  0.  0.  0.
533  5.32  0.  0.  0.
534  5.33  0.  0.  0.
535  5.34  0.  0.  0.
536  5.35  0.  0.  0.
537  5.36  0.  0.  0.
538  5.37  0.  0.  0.
539  5.38  0.  0.  0.
540  5.39  0.  0.  0.
541  5.40  0.  0.  0.
542  5.41  0.  0.  0.
543  5.42  0.  0.  0.
544  5.43  0.  0.  0.
545  5.44  0.  0.  0.
546  5.45  0.  0.  0.
547  5.46  0.  0.  0.
548  5.47  0.  0.  0.
549  5.48  0.  0.  0.
550  5.49  0.  0.  0.
551  5.50  0.  0.  0.
552  5.51  0.  0.  0.
553  5.52  0.  0.  0.
554  5.53  0.  0.  0.
555  5.54  0.  0.  0.
556  5.55  0.  0.  0.
557  5.56  0.  0.  0.
558  5.57  0.  0.  0.
559  5.58  0.  0.  0.
560  5.59  0.  0.  0.
561  5.60  0.  0.  0.
562  5.61  0.  0.  0.
563  5.62  0.  0.  0.
564  5.63  0.  0.  0.
565  5.64  0.  0.  0.
566  5.65  0.  0.  0.
567  5.66  0.  0.  0.
568  5.67  0.  0.  0.
569  5.68  0.  0.  0.
570  5.69  0.  0.  0.
571  5.70  0.  0.  0.
572  5.71  0.  0.  0.
573  5.72  0.  0.  0.
574  5.73  0.  0.  0.
575  5.74  0.  0.  0.
576  5.75  0.  0.  0.
577  5.76  0.  0.  0.
578  5.77  0.  0.  0.
579  5.78  0.  0.  0.
580  5.79  0.  0.  0.
581  5.80  0.  0.  0.
582  5.81  0.  0.  0.
583  5.82  0.  0.  0.
584  5.83  0.  0.  0.
585  5.84  0.  0.  0.
586  5.85  0.  0.  0.
587  5.86  0.  0.  0.
588  5.87  0.  0.  0.
589  5.88  0.  0.  0.
590  5.89  0.  0.  0.
591  5.90  0.  0.  0.
592  5.91  0.  0.  0.
593  5.92  0.  0.  0.
594  5.93  0.  0.  0.
595  5.94  0.  0.  0.
596  5.95  0.  0.  0.
597  5.96  0.  0.  0.
598  5.97  0.  0.  0.
599  5.98  0.  0.  0.
600  5.99  0.  0.  0.
1                        -9.8881044729032E+00  5.2523502461130E-01 -2.8588926159431E-01
1  0.0000000000000E+00  2.3425505979446E-09  1.0446226855754E-08 -1.7372843219565E-08
2  1.0000000000000E-02  2.5621748073965E-03  2.5782877792301E-03 -4.2312090224102E-03
3  2.0000000000000E-02  1.0231817928567E-02  1.0283977943517E-02 -1.6865384522852E-02
4  3.0000000000000E-02  2.2958419722028E-02  2.3029913897948E-02 -3.7724939882856E-02
5  4.0000000000000E-02  4.0658243710287E-02  4.0672038003454E-02 -6.6516448219590E-02
6  5.0000000000000E-02  6.3214991500250E-02  6.3011174358137E-02 -1.0283443560376E-01
7  6.0000000000000E-02  9.0480724787222E-02  8.9795480740936E-02 -1.4616662590406E-01
8  7.0000000000000E-02  1.2227703567306E-01  1.2072352702111E-01 -1.9590057240779E-01
9  8.0000000000000E-02  1.5839645418646E-01  1.5544794689081E-01 -2.5133159399422E-01
10  9.0000000000000E-02  1.9860407967052E-01  1.9357960057921E-01 -3.1167191712759E-01
11  1.0000000000000E-01  2.4263942062384E-01  2.3469217846069E-01 -3.7606090947719E-01
12  1.1000000000000E-01  2.9021842566784E-01  2.7832716934239E-01 -4.4357627674659E-01
13  1.2000000000000E-01  3.4103568658668E-01  3.2399911282916E-01 -5.1324608148106E-01
14  1.3000000000000E-01  3.9476679286364E-01  3.7120105259261E-01 -5.8406143139041E-01
15  1.4000000000000E-01  4.5107081583674E-01  4.1941010663726E-01 -6.5498967524000E-01
16  1.5000000000000E-01  5.0959289952924E-01  4.6809307174190E-01 -7.2498793677065E-01
17  1.6000000000000E-01  5.6996693438822E-01  5.1671198208402E-01 -7.9301681154528E-01
18  1.7000000000000E-01  6.3181828959587E-01  5.6472954651196E-01 -8.5805404820650E-01
19  1.8000000000000E-01  6.9476657930654E-01  6.1161439485718E-01 -9.1910803445735E-01
20  1.9000000000000E-01  7.5842843811188E-01  6.5684607088167E-01 -9.7523090922306E-01
21  2.0000000000000E-01  8.2242028124437E-01  6.9991971770582E-01 -1.0255311259607E+00
22  2.1000000000000E-01  8.8636102549220E-01  7.4035041061632E-01 -1.0691852979685E+00
23  2.2000000000000E-01  9.4987474750940E-01  7.7767710173874E-01 -1.1054491647978E+00
24  2.3000000000000E-01  1.0125932571527E+00  8.1146615091273E-01 -1.1336675294259E+00
25  2.4000000000000E-01  1.0741585646502E+00  8.4131442694507E-01 -1.1532830286336E+00
26  2.5000000000000E-01  1.1342252217871E+00  8.6685197298247E-01 -1.1638436139053E+00
27  2.6000000000000E-01  1.1924625188679E+00  8.8774423878479E-01 -1.1650086369858E+00
28  2.7000000000000E-01  1.2485565209560E+00  9.0369389096907E-01 -1.1565534527705E+00
29  2.8000000000000E-01  1.3022119287805E+00  9.1444221963470E-01 -1.1383724722515E+00
30  2.9000000000000E-01  1.3531537517174E+00  9.1977016600951E-01 -1.1104806195108E+00
31  3.0000000000000E-01  1.4011287823599E+00  9.1949900075076E-01 -1.0730131689515E+00
32  3.1000000000000E-01  1.4459068643790E+00  9.1349068620920E-01 -1.0262239617574E+00
33  3.2000000000000E-01  1.4872819475998E+00  9.0164795828575E-01 -9.7048202362583E-01
34  3.3000000000000E-01  1.5250729264647E+00  8.8391416447384E-01 -9.0626662876735E-01
35  3.4000000000000E-01  1.5591242602859E+00  8.6027289434344E-01 -8.3416087763251E-01
36  3.5000000000000E-01  1.5893063758851E+00  8.3074743716337E-01 -7.5484387744693E-01
37  3.6000000000000E-01  1.6155158553482E+00  7.9540009870682E-01 -6.6908163503508E-01
38  3.7000000000000E-01  1.6376754136667E+00  7.5433140569133E-01 -5.7771679024480E-01
39  3.8000000000000E-01  1.6557336729680E+00  7.0767922194987E-01 -4.8165733521531E-01
40  3.9000000000000E-01  1.6696647418330E+00  6.5561779552125E-01 -3.8186447945155E-01
41  4.0000000000000E-01  1.6794676098505E+00  5.9835675058029E-01 -2.7933983292658E-01
42  4.1000000000000E-01  1.6851653690338E+00  5.3614003274161E-01 -1.7511208898542E-01
43  4.2000000000000E-01  1.6868042750244E+00  4.6924481095607E-01 -7.0223395512150E-02
44  4.3000000000000E-01  1.6844526621159E+00  3.9798033419278E-01  3.4284393485677E-02
45  4.4000000000000E-01  1.6781997270387E+00  3.2268673654791E-01  1.3738339309156E-01
46  4.5000000000000E-01  1.6681541971494E+00  2.4373378049882E-01  2.3807309914034E-01
47  4.6000000000000E-01  1.6544428991734E+00  1.6151952487158E-01  3.3539335141410E-01
48  4.7000000000000E-01  1.6372092449437E+00  7.6468901810687E-02  4.2843667180448E-01
49  4.8000000000000E-01  1.6166116506814E+00 -1.0967814305679E-02  5.1635981193154E-01
50  4.9000000000000E-01  1.5928219062743E+00 -1.0031666344349E-01  5.9839435826385E-01
51  5.0000000000000E-01  1.5660235107400E+00 -1.9108179885020E-01  6.7385625855502E-01
52  5.1000000000000E-01  1.5364099896244E+00 -2.8274744374282E-01  7.4215415107340E-01
53  5.2000000000000E-01  1.5041832094988E+00 -3.7478001884103E-01  8.0279639729607E-01
54  5.3000000000000E-01  1.4695517039914E+00 -4.6663045083591E-01  8.5539673907777E-01
55  5.4000000000000E-01  1.4327290249482E+00 -5.5773666831532E-01  8.9967852238189E-01
56  5.5000000000000E-01  1.3939321313726E+00 -6.4752628769552E-01  9.3547745105727E-01
57  5.6000000000000E-01  1.3533798277686E+00 -7.3541948750480E-01  9.6274285545112E-01
58  5.7000000000000E-01  1.3112912624253E+00 -8.2083206512232E-01  9.8153748145092E-01
59  5.8000000000000E-01  1.2678844950505E+00 -9.0317866596536E-01  9.9203582547482E-01
60  5.9000000000000E-01  1.2233751420068E+00 -9.8187617131879E-01  9.9452105962561E-01
61  6.0000000000000E-01  1.1779751062404E+00 -1.0563472276738E+00  9.8938060837202E-01
62  6.1000000000000E-01  1.1318913978407E+00 -1.1260238977119E+00  9.7710045347197E-01
63  6.2000000000000E-01  1.0853250500376E+00 -1.1903514110554E+00  9.5825825718324E-01
64  6.3000000000000E-01  1.0384701343503E+00 -1.2487919916605E+00  9.3351540498398E-01
65  6.4000000000000E-01  9.9151287755332E-01 -1.3008287383030E+00  9.0360807795233E-01
66  6.5000000000000E-01  9.4463088213332E-01 -1.3459695349728E+00  8.6933747162164E-01
67  6.6000000000000E-01  8.9799245098284E-01 -1.3837509691123E+00  8.3155928257603E-01
68  6.7000000000000E-01  8.5175601621165E-01 -1.4137422374008E+00  7.9117258639280E-01
69  6.8000000000000E-01  8.0606967116394E-01 -1.4355490210679E+00  7.4910823094287E-01
70  6.9000000000000E-01  7.6107080400480E-01 -1.4488173153432E+00  7.0631686775159E-01
71  7.0000000000000E-01  7.1688583058265E-01 -1.4532372004043E+00  6.6375674136899E-01
72  7.1000000000000E-01  6.7363002368281E-01 -1.4485465438401E+00  6.2238135281322E-01
73  7.2000000000000E-01  6.3140743525599E-01 -1.4345346269584E+00  5.8312710846380E-01
74  7.3000000000000E-01  5.9031090772946E-01 -1.4110456889624E+00  5.4690106065292E-01
75  7.4000000000000E-01  5.5042217008073E-01 -1.3779823838517E+00  5.1456884098895E-01
76  7.5000000000000E-01  5.1181201396786E-01 -1.3353091446176E+00  4.8694288249838E-01
77  7.6000000000000E-01  4.7454054485926E-01 -1.2830554476685E+00  4.6477102232866E-01
78  7.7000000000000E-01  4.3865750278313E-01 -1.2213189672427E+00  4.4872557331498E-01
79  7.8000000000000E-01  4.0420264701475E-01 -1.1502686046900E+00  4.3939295044605E-01
80  7.9000000000000E-01  3.7120619873497E-01 -1.0701473708089E+00  4.3726393737476E-01
81  8.0000000000000E-01  3.3968933541900E-01 -9.8127509088092E-01  4.4272467876583E-01
82  8.1000000000000E-01  3.0966473044898E-01 -8.8405089163541E-01  4.5604848653780E-01
83  8.2000000000000E-01  2.8113713118393E-01 -7.7895541720653E-01  4.7738855195472E-01
84  8.3000000000000E-01  2.5410396846664E-01 -6.6655270734398E-01  5.0677166099443E-01
85  8.4000000000000E-01  2.2855599029965E-01 -5.4749165593549E-01  5.4409301732824E-01
86  8.5000000000000E-01  2.0447791218433E-01 -4.2250695158315E-01  5.8911228537810E-01
87  8.6000000000000E-01  1.8184907639279E-01 -2.9241938489010E-01  6.4145097500010E-01
88  8.7000000000000E-01  1.6064411223710E-01 -1.5813538969298E-01  7.0059129901408E-01
89  8.8000000000000E-01  1.4083358922144E-01 -2.0645668156552E-02  7.6587664468168E-01
90  8.9000000000000E-01  1.2238465481804E-01  1.1897726703734E-01  8.3651380985517E-01
91  9.0000000000000E-01  1.0526164850603E-01  2.5958281570583E-01  9.1157716341268E-01
92  9.1000000000000E-01  8.9426683663208E-02  3.9994747450761E-01  9.9001489725306E-01
93  9.2000000000000E-01  7.4840188913083E-02  5.3878169028573E-01  1.0706575430283E+00
94  9.3000000000000E-01  6.1461400613978E-02  6.7473859883582E-01  1.1522289304512E+00
95  9.4000000000000E-01  4.9248798340999E-02  8.0642487095543E-01  1.2333597649445E+00
96  9.5000000000000E-01  3.8160475464699E-02  9.3241388927369E-01  1.3126040001537E+00
97  9.6000000000000E-01  2.8154437278364E-02  1.0512614768094E+00  1.3884581750516E+00
98  9.7000000000000E-01  1.9188819574838E-02  1.1615243911226E+00  1.4593838756854E+00
99  9.8000000000000E-01  1.1222021127298E-02  1.2617817860556E+00  1.5238334678290E+00
100  9.9000000000000E-01  4.2127441880015E-03  1.3506598262509E+00  1.5802792287402E+00
101  1.0000000000000E+00 -1.8800621163616E-03  1.4268596178595E+00  1.6272459838671E+00
102  1.0100000000000E+00 -7.0973597464910E-03  1.4891885921338E+00  1.6633473277038E+00