Sg    ONCVPSP-4.0.1  r_core=   1.10583   1.30748   1.20244   1.20244
106.0000     46.0000      231012    zatom,zion,pspd
8 -116133   3     4   600     0    pspcod,pspxc,lmax,lloc,mmax,r2well
5.99000000  5.00000000  0.00000000    rchrg fchrg qchrg
3     2     2     2     0    nproj
1     1           extension_switch
0                         2.0242159891861E+01 -1.0807717490715E+01 -3.6109055022690E-01
1  0.0000000000000E+00 -2.4341888726909E-08  7.3662659305640E-10  4.7140709391602E-08
2  1.0000000000000E-02  2.1344165118459E-01  5.2319004537763E-02 -5.6324099563039E-02
3  2.0000000000000E-02  4.2466649753424E-01  1.0464426757853E-01 -1.1158340374070E-01
4  3.0000000000000E-02  6.3148543994542E-01  1.5698098231002E-01 -1.6473840871263E-01
5  4.0000000000000E-02  8.3176439024497E-01  2.0933222590295E-01 -2.1479960660739E-01
6  5.0000000000000E-02  1.0234507816474E+00  2.6169793784355E-01 -2.6085102773455E-01
7  6.0000000000000E-02  1.2045989028127E+00  3.1407394133826E-01 -3.0207206994746E-01
8  7.0000000000000E-02  1.3733936924344E+00  3.6645102126362E-01 -3.3775710037449E-01
9  8.0000000000000E-02  1.5281726556311E+00  4.1881407139822E-01 -3.6733236189780E-01
10  9.0000000000000E-02  1.6674455931326E+00  4.7114132277774E-01 -3.9036977437867E-01
11  1.0000000000000E-01  1.7899118688916E+00  5.2340366397698E-01 -4.0659728783305E-01
12  1.1000000000000E-01  1.8944749807527E+00  5.7556406295922E-01 -4.1590552043614E-01
13  1.2000000000000E-01  1.9802542415674E+00  6.2757709886467E-01 -4.1835049708320E-01
14  1.3000000000000E-01  2.0465934239386E+00  6.7938861075408E-01 -4.1415239271788E-01
15  1.4000000000000E-01  2.0930662698824E+00  7.3093546890184E-01 -4.0369027705051E-01
16  1.5000000000000E-01  2.1194788162718E+00  7.8214547276351E-01 -3.8749295170390E-01
17  1.6000000000000E-01  2.1258685371543E+00  8.3293737824568E-01 -3.6622606518007E-01
18  1.7000000000000E-01  2.1125003540286E+00  8.8322105539721E-01 -3.4067578312865E-01
19  1.8000000000000E-01  2.0798596140442E+00  9.3289777613759E-01 -3.1172937893318E-01
20  1.9000000000000E-01  2.0286421829825E+00  9.8186063015371E-01 -2.8035319030905E-01
21  2.0000000000000E-01  1.9597418439360E+00  1.0299950656440E+00 -2.4756845913398E-01
22  2.1000000000000E-01  1.8742352330185E+00  1.0771795501799E+00 -2.1442563196194E-01
23  2.2000000000000E-01  1.7733645794674E+00  1.1232863455965E+00 -1.8197774559009E-01
24  2.3000000000000E-01  1.6585185484834E+00  1.1681823895318E+00 -1.5125355395041E-01
25  2.4000000000000E-01  1.5312115105119E+00  1.2117302750040E+00 -1.2323106807360E-01
26  2.5000000000000E-01  1.3930615799640E+00  1.2537893182684E+00 -9.8812178940209E-02
27  2.6000000000000E-01  1.2457677792644E+00  1.2942167041296E+00 -7.8799013163180E-02
28  2.7000000000000E-01  1.0910866904109E+00  1.3328686969072E+00 -6.3872633636457E-02
29  2.8000000000000E-01  9.3080895588408E-01  1.3696019043791E+00 -5.4574642056631E-02
30  2.9000000000000E-01  7.6673598385277E-01  1.4042745812589E+00 -5.1292168692386E-02
31  3.0000000000000E-01  6.0065719942855E-01  1.4367479581118E+00 -5.4246648587674E-02
32  3.1000000000000E-01  4.3432816460973E-01  1.4668875810961E+00 -6.3486684721235E-02
33  3.2000000000000E-01  2.6944986504483E-01  1.4945646475316E+00 -7.8885190170425E-02
34  3.3000000000000E-01  1.0764943247282E-01  1.5196573220711E+00 -1.0014088612631E-01
35  3.4000000000000E-01 -4.9537461599982E-02  1.5420520181842E+00 -1.2678411405051E-01
36  3.5000000000000E-01 -2.0068234192149E-01  1.5616446297705E+00 -1.5818680198381E-01
37  3.6000000000000E-01 -3.4447763496362E-01  1.5783416980186E+00 -1.9357631069456E-01
38  3.7000000000000E-01 -4.7974822380387E-01  1.5920614991130E+00 -2.3205277865944E-01
39  3.8000000000000E-01 -6.0546077307009E-01  1.6027350390830E+00 -2.7260948930069E-01
40  3.9000000000000E-01 -7.2073078485283E-01  1.6103069429816E+00 -3.1415570264146E-01
41  4.0000000000000E-01 -8.2482738544159E-01  1.6147362266744E+00 -3.5554132935313E-01
42  4.1000000000000E-01 -9.1717587959343E-01  1.6159969408151E+00 -3.9558278028136E-01
43  4.2000000000000E-01 -9.9735814308714E-01  1.6140786780611E+00 -4.3308930051394E-01
44  4.3000000000000E-01 -1.0651109549509E+00  1.6089869362352E+00 -4.6688909477862E-01
45  4.4000000000000E-01 -1.1203223974995E+00  1.6007433319388E+00 -4.9585457052044E-01
46  4.5000000000000E-01 -1.1630264748338E+00  1.5893856610526E+00 -5.1892606572779E-01
47  4.6000000000000E-01 -1.1933961185327E+00  1.5749678045776E+00 -5.3513348900177E-01
48  4.7000000000000E-01 -1.2117347628460E+00  1.5575594803524E+00 -5.4361537729046E-01
49  4.8000000000000E-01 -1.2184666808340E+00  1.5372458432825E+00 -5.4363496929877E-01
50  4.9000000000000E-01 -1.2141262778052E+00  1.5141269387973E+00 -5.3459299640781E-01
51  5.0000000000000E-01 -1.1993465393716E+00  1.4883170162662E+00 -5.1603700413782E-01
52  5.1000000000000E-01 -1.1748468288824E+00  1.4599437110172E+00 -4.8766713162595E-01
53  5.2000000000000E-01 -1.1414202233844E+00  1.4291471053599E+00 -4.4933838996220E-01
54  5.3000000000000E-01 -1.0999205691192E+00  1.3960786805922E+00 -4.0105958830175E-01
55  5.4000000000000E-01 -1.0512494274613E+00  1.3609001733174E+00 -3.4298915539145E-01
56  5.5000000000000E-01 -9.9634307067572E-01  1.3237823504972E+00 -2.7542818985208E-01
57  5.6000000000000E-01 -9.3615967447939E-01  1.2849037184885E+00 -1.9881114209009E-01
58  5.7000000000000E-01 -8.7166684160535E-01  1.2444491818342E+00 -1.1369458160477E-01
59  5.8000000000000E-01 -8.0382957783335E-01  1.2026086678079E+00 -2.0744533982055E-02
60  5.9000000000000E-01 -7.3359882961123E-01  1.1595757326341E+00  7.9277118820229E-02
61  6.0000000000000E-01 -6.6190068071147E-01  1.1155461649363E+00  1.8552669315280E-01
62  6.1000000000000E-01 -5.8962629451072E-01  1.0707166013265E+00  2.9709276366560E-01
63  6.2000000000000E-01 -5.1762267851125E-01  1.0252831681547E+00  4.1300982943201E-01
64  6.3000000000000E-01 -4.4668433861039E-01  9.7944016233561E-01  5.3227125326433E-01
65  6.4000000000000E-01 -3.7754588224744E-01  9.3337878288602E-01  6.5384121990809E-01
66  6.5000000000000E-01 -3.1087562172071E-01  8.8728592339958E-01  7.7666554590685E-01
67  6.6000000000000E-01 -2.4727022141442E-01  8.4134303418908E-01  8.9968126516601E-01
68  6.7000000000000E-01 -1.8725042511205E-01  7.9572506130313E-01  1.0218250050583E+00
69  6.8000000000000E-01 -1.3125789168303E-01  7.5059946811301E-01  1.1420402536976E+00
70  6.9000000000000E-01 -7.9653158909813E-02  7.0612534371921E-01  1.2592836953719E+00
71  7.0000000000000E-01 -3.2714745789290E-02  6.6245260108584E-01  1.3725308540132E+00
72  7.1000000000000E-01  9.3606069276044E-03  6.1972126661305E-01  1.4807813305502E+00
73  7.2000000000000E-01  4.6456570058718E-02  5.7806086183124E-01  1.5830639463085E+00
74  7.3000000000000E-01  7.8534758500094E-02  5.3758987706804E-01  1.6784421094684E+00
75  7.4000000000000E-01  1.0563120279264E-01  4.9841533631079E-01  1.7660197041192E+00
76  7.5000000000000E-01  1.2785181533663E-01  4.6063245206516E-01  1.8449477619154E+00
77  7.6000000000000E-01  1.4536692347973E-01  4.2432436878518E-01  1.9144321160305E+00
78  7.7000000000000E-01  1.5840495887609E-01  3.8956199340330E-01  1.9737421584597E+00
79  7.8000000000000E-01  1.6724540975239E-01  3.5640391159219E-01  2.0222207280991E+00
80  7.9000000000000E-01  1.7221115945450E-01  3.2489638860711E-01  2.0592950527335E+00
81  8.0000000000000E-01  1.7366035025490E-01  2.9507345384557E-01  2.0844885581060E+00
82  8.1000000000000E-01  1.7197792520103E-01  2.6695706857264E-01  2.0974332471615E+00
83  8.2000000000000E-01  1.6756701208503E-01  2.4055737654404E-01  2.0978822482340E+00
84  8.3000000000000E-01  1.6084032174117E-01  2.1587303746553E-01  2.0857220382987E+00
85  8.4000000000000E-01  1.5221173719704E-01  1.9289164330630E-01  2.0609837721800E+00
86  8.5000000000000E-01  1.4208827016938E-01  1.7159021739161E-01  2.0238530960983E+00
87  8.6000000000000E-01  1.3086255656138E-01  1.5193579589764E-01  1.9746777987308E+00
88  8.7000000000000E-01  1.1890605268419E-01  1.3388609083047E-01  1.9139726587416E+00
89  8.8000000000000E-01  1.0656307874510E-01  1.1739023277072E-01  1.8424208870353E+00
90  8.9000000000000E-01  9.4145835756282E-02  1.0238959060013E-01  1.7608716360767E+00
91  9.0000000000000E-01  8.1930496642444E-02  8.8818664100022E-02  1.6703331573721E+00
92  9.1000000000000E-01  7.0154442387703E-02  7.6606043743326E-02  1.5719613300294E+00
93  9.2000000000000E-01  5.9014680167946E-02  6.5675430223172E-02  1.4670434551936E+00
94  9.3000000000000E-01  4.8667443356159E-02  5.5946704315871E-02  1.3569774086662E+00
95  9.4000000000000E-01  3.9228934014795E-02  4.7337035619331E-02  1.2432464614781E+00
96  9.5000000000000E-01  3.0777128079872E-02  3.9762016604556E-02  1.1273903088473E+00
97  9.6000000000000E-01  2.3354523087833E-02  3.3136806340092E-02  1.0109730841133E+00
98  9.7000000000000E-01  1.6971669224145E-02  2.7377266273052E-02  8.9554936778505E-01
99  9.8000000000000E-01  1.1611287958266E-02  2.2401068655504E-02  7.8262942413894E-01
100  9.9000000000000E-01  7.2327497954250E-03  1.8128756668367E-02  6.7364510044658E-01
101  1.0000000000000E+00  3.7766548880960E-03  1.4484734090526E-02  5.6991799871141E-01
102  1.0100000000000E+00  1.1692384284357E-03  1.1398161553739E-02  4.7263166945694E-01
103  1.0200000000000E+00 -6.7369221171057E-04  8.8037360711911E-03  3.8280967505735E-01
104  1.0300000000000E+00 -1.8435870700245E-03  6.6423317318549E-03  3.0130141064307E-01
105  1.0400000000000E+00 -2.4370862007974E-03  4.8614624358507E-03  2.2877777275773E-01
106  1.0500000000000E+00 -2.5552981948136E-03  3.4155939320846E-03  1.6573822164595E-01
107  1.0600000000000E+00 -2.3163366513161E-03  2.2584816470718E-03  1.1259617207268E-01
108  1.0700000000000E+00 -1.8242206348459E-03  1.3563321483707E-03  6.9538908852469E-02
109  1.0800000000000E+00 -1.1846363073917E-03  6.9345533771614E-04  3.6616666198069E-02
110  1.0900000000000E+00 -5.4395513510028E-04  2.5661373545812E-04  1.3987256827667E-02
111  1.1000000000000E+00 -9.0017570896258E-05  3.4836677466834E-05  1.9658486562286E-03
112  1.1100000000000E+00  4.8594713429152E-06 -1.6389564574953E-06 -9.5380705447617E-05
113  1.1200000000000E+00  1.3246351748723E-07 -5.1640029144556E-08 -2.9180355193675E-06
114  1.13 -0. -0.  0.
115  1.14  0.  0.  0.
116  1.15  0.  0.  0.
117  1.16  0.  0.  0.
118  1.17  0.  0.  0.
119  1.18  0.  0.  0.
120  1.19  0.  0.  0.
121  1.20  0.  0.  0.
122  1.21  0.  0.  0.
123  1.22  0.  0.  0.
124  1.23  0.  0.  0.
125  1.24  0.  0.  0.
126  1.25  0.  0.  0.
127  1.26  0.  0.  0.
128  1.27  0.  0.  0.
129  1.28  0.  0.  0.
130  1.29  0.  0.  0.
131  1.30  0.  0.  0.
132  1.31  0.  0.  0.
133  1.32  0.  0.  0.
134  1.33  0.  0.  0.
135  1.34  0.  0.  0.
136  1.35  0.  0.  0.
137  1.36  0.  0.  0.
138  1.37  0.  0.  0.
139  1.38  0.  0.  0.
140  1.39  0.  0.  0.
141  1.40  0.  0.  0.
142  1.41  0.  0.  0.
143  1.42  0.  0.  0.
144  1.43  0.  0.  0.
145  1.44  0.  0.  0.
146  1.45  0.  0.  0.
147  1.46  0.  0.  0.
148  1.47  0.  0.  0.
149  1.48  0.  0.  0.
150  1.49  0.  0.  0.
151  1.50  0.  0.  0.
152  1.51  0.  0.  0.
153  1.52  0.  0.  0.
154  1.53  0.  0.  0.
155  1.54  0.  0.  0.
156  1.55  0.  0.  0.
157  1.56  0.  0.  0.
158  1.57  0.  0.  0.
159  1.58  0.  0.  0.
160  1.59  0.  0.  0.
161  1.60  0.  0.  0.
162  1.61  0.  0.  0.
163  1.62  0.  0.  0.
164  1.63  0.  0.  0.
165  1.64  0.  0.  0.
166  1.65  0.  0.  0.
167  1.66  0.  0.  0.
168  1.67  0.  0.  0.
169  1.68  0.  0.  0.
170  1.69  0.  0.  0.
171  1.70  0.  0.  0.
172  1.71  0.  0.  0.
173  1.72  0.  0.  0.
174  1.73  0.  0.  0.
175  1.74  0.  0.  0.
176  1.75  0.  0.  0.
177  1.76  0.  0.  0.
178  1.77  0.  0.  0.
179  1.78  0.  0.  0.
180  1.79  0.  0.  0.
181  1.80  0.  0.  0.
182  1.81  0.  0.  0.
183  1.82  0.  0.  0.
184  1.83  0.  0.  0.
185  1.84  0.  0.  0.
186  1.85  0.  0.  0.
187  1.86  0.  0.  0.
188  1.87  0.  0.  0.
189  1.88  0.  0.  0.
190  1.89  0.  0.  0.
191  1.90  0.  0.  0.
192  1.91  0.  0.  0.
193  1.92  0.  0.  0.
194  1.93  0.  0.  0.
195  1.94  0.  0.  0.
196  1.95  0.  0.  0.
197  1.96  0.  0.  0.
198  1.97  0.  0.  0.
199  1.98  0.  0.  0.
200  1.99  0.  0.  0.
201  2.00  0.  0.  0.
202  2.01  0.  0.  0.
203  2.02  0.  0.  0.
204  2.03  0.  0.  0.
205  2.04  0.  0.  0.
206  2.05  0.  0.  0.
207  2.06  0.  0.  0.
208  2.07  0.  0.  0.
209  2.08  0.  0.  0.
210  2.09  0.  0.  0.
211  2.10  0.  0.  0.
212  2.11  0.  0.  0.
213  2.12  0.  0.  0.
214  2.13  0.  0.  0.
215  2.14  0.  0.  0.
216  2.15  0.  0.  0.
217  2.16  0.  0.  0.
218  2.17  0.  0.  0.
219  2.18  0.  0.  0.
220  2.19  0.  0.  0.
221  2.20  0.  0.  0.
222  2.21  0.  0.  0.
223  2.22  0.  0.  0.
224  2.23  0.  0.  0.
225  2.24  0.  0.  0.
226  2.25  0.  0.  0.
227  2.26  0.  0.  0.
228  2.27  0.  0.  0.
229  2.28  0.  0.  0.
230  2.29  0.  0.  0.
231  2.30  0.  0.  0.
232  2.31  0.  0.  0.
233  2.32  0.  0.  0.
234  2.33  0.  0.  0.
235  2.34  0.  0.  0.
236  2.35  0.  0.  0.
237  2.36  0.  0.  0.
238  2.37  0.  0.  0.
239  2.38  0.  0.  0.
240  2.39  0.  0.  0.
241  2.40  0.  0.  0.
242  2.41  0.  0.  0.
243  2.42  0.  0.  0.
244  2.43  0.  0.  0.
245  2.44  0.  0.  0.
246  2.45  0.  0.  0.
247  2.46  0.  0.  0.
248  2.47  0.  0.  0.
249  2.48  0.  0.  0.
250  2.49  0.  0.  0.
251  2.50  0.  0.  0.
252  2.51  0.  0.  0.
253  2.52  0.  0.  0.
254  2.53  0.  0.  0.
255  2.54  0.  0.  0.
256  2.55  0.  0.  0.
257  2.56  0.  0.  0.
258  2.57  0.  0.  0.
259  2.58  0.  0.  0.
260  2.59  0.  0.  0.
261  2.60  0.  0.  0.
262  2.61  0.  0.  0.
263  2.62  0.  0.  0.
264  2.63  0.  0.  0.
265  2.64  0.  0.  0.
266  2.65  0.  0.  0.
267  2.66  0.  0.  0.
268  2.67  0.  0.  0.
269  2.68  0.  0.  0.
270  2.69  0.  0.  0.
271  2.70  0.  0.  0.
272  2.71  0.  0.  0.
273  2.72  0.  0.  0.
274  2.73  0.  0.  0.
275  2.74  0.  0.  0.
276  2.75  0.  0.  0.
277  2.76  0.  0.  0.
278  2.77  0.  0.  0.
279  2.78  0.  0.  0.
280  2.79  0.  0.  0.
281  2.80  0.  0.  0.
282  2.81  0.  0.  0.
283  2.82  0.  0.  0.
284  2.83  0.  0.  0.
285  2.84  0.  0.  0.
286  2.85  0.  0.  0.
287  2.86  0.  0.  0.
288  2.87  0.  0.  0.
289  2.88  0.  0.  0.
290  2.89  0.  0.  0.
291  2.90  0.  0.  0.
292  2.91  0.  0.  0.
293  2.92  0.  0.  0.
294  2.93  0.  0.  0.
295  2.94  0.  0.  0.
296  2.95  0.  0.  0.
297  2.96  0.  0.  0.
298  2.97  0.  0.  0.
299  2.98  0.  0.  0.
300  2.99  0.  0.  0.
301  3.00  0.  0.  0.
302  3.01  0.  0.  0.
303  3.02  0.  0.  0.
304  3.03  0.  0.  0.
305  3.04  0.  0.  0.
306  3.05  0.  0.  0.
307  3.06  0.  0.  0.
308  3.07  0.  0.  0.
309  3.08  0.  0.  0.
310  3.09  0.  0.  0.
311  3.10  0.  0.  0.
312  3.11  0.  0.  0.
313  3.12  0.  0.  0.
314  3.13  0.  0.  0.
315  3.14  0.  0.  0.
316  3.15  0.  0.  0.
317  3.16  0.  0.  0.
318  3.17  0.  0.  0.
319  3.18  0.  0.  0.
320  3.19  0.  0.  0.
321  3.20  0.  0.  0.
322  3.21  0.  0.  0.
323  3.22  0.  0.  0.
324  3.23  0.  0.  0.
325  3.24  0.  0.  0.
326  3.25  0.  0.  0.
327  3.26  0.  0.  0.
328  3.27  0.  0.  0.
329  3.28  0.  0.  0.
330  3.29  0.  0.  0.
331  3.30  0.  0.  0.
332  3.31  0.  0.  0.
333  3.32  0.  0.  0.
334  3.33  0.  0.  0.
335  3.34  0.  0.  0.
336  3.35  0.  0.  0.
337  3.36  0.  0.  0.
338  3.37  0.  0.  0.
339  3.38  0.  0.  0.
340  3.39  0.  0.  0.
341  3.40  0.  0.  0.
342  3.41  0.  0.  0.
343  3.42  0.  0.  0.
344  3.43  0.  0.  0.
345  3.44  0.  0.  0.
346  3.45  0.  0.  0.
347  3.46  0.  0.  0.
348  3.47  0.  0.  0.
349  3.48  0.  0.  0.
350  3.49  0.  0.  0.
351  3.50  0.  0.  0.
352  3.51  0.  0.  0.
353  3.52  0.  0.  0.
354  3.53  0.  0.  0.
355  3.54  0.  0.  0.
356  3.55  0.  0.  0.
357  3.56  0.  0.  0.
358  3.57  0.  0.  0.
359  3.58  0.  0.  0.
360  3.59  0.  0.  0.
361  3.60  0.  0.  0.
362  3.61  0.  0.  0.
363  3.62  0.  0.  0.
364  3.63  0.  0.  0.
365  3.64  0.  0.  0.
366  3.65  0.  0.  0.
367  3.66  0.  0.  0.
368  3.67  0.  0.  0.
369  3.68  0.  0.  0.
370  3.69  0.  0.  0.
371  3.70  0.  0.  0.
372  3.71  0.  0.  0.
373  3.72  0.  0.  0.
374  3.73  0.  0.  0.
375  3.74  0.  0.  0.
376  3.75  0.  0.  0.
377  3.76  0.  0.  0.
378  3.77  0.  0.  0.
379  3.78  0.  0.  0.
380  3.79  0.  0.  0.
381  3.80  0.  0.  0.
382  3.81  0.  0.  0.
383  3.82  0.  0.  0.
384  3.83  0.  0.  0.
385  3.84  0.  0.  0.
386  3.85  0.  0.  0.
387  3.86  0.  0.  0.
388  3.87  0.  0.  0.
389  3.88  0.  0.  0.
390  3.89  0.  0.  0.
391  3.90  0.  0.  0.
392  3.91  0.  0.  0.
393  3.92  0.  0.  0.
394  3.93  0.  0.  0.
395  3.94  0.  0.  0.
396  3.95  0.  0.  0.
397  3.96  0.  0.  0.
398  3.97  0.  0.  0.
399  3.98  0.  0.  0.
400  3.99  0.  0.  0.
401  4.00  0.  0.  0.
402  4.01  0.  0.  0.
403  4.02  0.  0.  0.
404  4.03  0.  0.  0.
405  4.04  0.  0.  0.
406  4.05  0.  0.  0.
407  4.06  0.  0.  0.
408  4.07  0.  0.  0.
409  4.08  0.  0.  0.
410  4.09  0.  0.  0.
411  4.10  0.  0.  0.
412  4.11  0.  0.  0.
413  4.12  0.  0.  0.
414  4.13  0.  0.  0.
415  4.14  0.  0.  0.
416  4.15  0.  0.  0.
417  4.16  0.  0.  0.
418  4.17  0.  0.  0.
419  4.18  0.  0.  0.
420  4.19  0.  0.  0.
421  4.20  0.  0.  0.
422  4.21  0.  0.  0.
423  4.22  0.  0.  0.
424  4.23  0.  0.  0.
425  4.24  0.  0.  0.
426  4.25  0.  0.  0.
427  4.26  0.  0.  0.
428  4.27  0.  0.  0.
429  4.28  0.  0.  0.
430  4.29  0.  0.  0.
431  4.30  0.  0.  0.
432  4.31  0.  0.  0.
433  4.32  0.  0.  0.
434  4.33  0.  0.  0.
435  4.34  0.  0.  0.
436  4.35  0.  0.  0.
437  4.36  0.  0.  0.
438  4.37  0.  0.  0.
439  4.38  0.  0.  0.
440  4.39  0.  0.  0.
441  4.40  0.  0.  0.
442  4.41  0.  0.  0.
443  4.42  0.  0.  0.
444  4.43  0.  0.  0.
445  4.44  0.  0.  0.
446  4.45  0.  0.  0.
447  4.46  0.  0.  0.
448  4.47  0.  0.  0.
449  4.48  0.  0.  0.
450  4.49  0.  0.  0.
451  4.50  0.  0.  0.
452  4.51  0.  0.  0.
453  4.52  0.  0.  0.
454  4.53  0.  0.  0.
455  4.54  0.  0.  0.
456  4.55  0.  0.  0.
457  4.56  0.  0.  0.
458  4.57  0.  0.  0.
459  4.58  0.  0.  0.
460  4.59  0.  0.  0.
461  4.60  0.  0.  0.
462  4.61  0.  0.  0.
463  4.62  0.  0.  0.
464  4.63  0.  0.  0.
465  4.64  0.  0.  0.
466  4.65  0.  0.  0.
467  4.66  0.  0.  0.
468  4.67  0.  0.  0.
469  4.68  0.  0.  0.
470  4.69  0.  0.  0.
471  4.70  0.  0.  0.
472  4.71  0.  0.  0.
473  4.72  0.  0.  0.
474  4.73  0.  0.  0.
475  4.74  0.  0.  0.
476  4.75  0.  0.  0.
477  4.76  0.  0.  0.
478  4.77  0.  0.  0.
479  4.78  0.  0.  0.
480  4.79  0.  0.  0.
481  4.80  0.  0.  0.
482  4.81  0.  0.  0.
483  4.82  0.  0.  0.
484  4.83  0.  0.  0.
485  4.84  0.  0.  0.
486  4.85  0.  0.  0.
487  4.86  0.  0.  0.
488  4.87  0.  0.  0.
489  4.88  0.  0.  0.
490  4.89  0.  0.  0.
491  4.90  0.  0.  0.
492  4.91  0.  0.  0.
493  4.92  0.  0.  0.
494  4.93  0.  0.  0.
495  4.94  0.  0.  0.
496  4.95  0.  0.  0.
497  4.96  0.  0.  0.
498  4.97  0.  0.  0.
499  4.98  0.  0.  0.
500  4.99  0.  0.  0.
501  5.00  0.  0.  0.
502  5.01  0.  0.  0.
503  5.02  0.  0.  0.
504  5.03  0.  0.  0.
505  5.04  0.  0.  0.
506  5.05  0.  0.  0.
507  5.06  0.  0.  0.
508  5.07  0.  0.  0.
509  5.08  0.  0.  0.
510  5.09  0.  0.  0.
511  5.10  0.  0.  0.
512  5.11  0.  0.  0.
513  5.12  0.  0.  0.
514  5.13  0.  0.  0.
515  5.14  0.  0.  0.
516  5.15  0.  0.  0.
517  5.16  0.  0.  0.
518  5.17  0.  0.  0.
519  5.18  0.  0.  0.
520  5.19  0.  0.  0.
521  5.20  0.  0.  0.
522  5.21  0.  0.  0.
523  5.22  0.  0.  0.
524  5.23  0.  0.  0.
525  5.24  0.  0.  0.
526  5.25  0.  0.  0.
527  5.26  0.  0.  0.
528  5.27  0.  0.  0.
529  5.28  0.  0.  0.
530  5.29  0.  0.  0.
531  5.30  0.  0.  0.
532  5.31  0.  0.  0.
533  5.32  0.  0.  0.
534  5.33  0.  0.  0.
535  5.34  0.  0.  0.
536  5.35  0.  0.  0.
537  5.36  0.  0.  0.
538  5.37  0.  0.  0.
539  5.38  0.  0.  0.
540  5.39  0.  0.  0.
541  5.40  0.  0.  0.
542  5.41  0.  0.  0.
543  5.42  0.  0.  0.
544  5.43  0.  0.  0.
545  5.44  0.  0.  0.
546  5.45  0.  0.  0.
547  5.46  0.  0.  0.
548  5.47  0.  0.  0.
549  5.48  0.  0.  0.
550  5.49  0.  0.  0.
551  5.50  0.  0.  0.
552  5.51  0.  0.  0.
553  5.52  0.  0.  0.
554  5.53  0.  0.  0.
555  5.54  0.  0.  0.
556  5.55  0.  0.  0.
557  5.56  0.  0.  0.
558  5.57  0.  0.  0.
559  5.58  0.  0.  0.
560  5.59  0.  0.  0.
561  5.60  0.  0.  0.
562  5.61  0.  0.  0.
563  5.62  0.  0.  0.
564  5.63  0.  0.  0.
565  5.64  0.  0.  0.
566  5.65  0.  0.  0.
567  5.66  0.  0.  0.
568  5.67  0.  0.  0.
569  5.68  0.  0.  0.
570  5.69  0.  0.  0.
571  5.70  0.  0.  0.
572  5.71  0.  0.  0.
573  5.72  0.  0.  0.
574  5.73  0.  0.  0.
575  5.74  0.  0.  0.
576  5.75  0.  0.  0.
577  5.76  0.  0.  0.
578  5.77  0.  0.  0.
579  5.78  0.  0.  0.
580  5.79  0.  0.  0.
581  5.80  0.  0.  0.
582  5.81  0.  0.  0.
583  5.82  0.  0.  0.
584  5.83  0.  0.  0.
585  5.84  0.  0.  0.
586  5.85  0.  0.  0.
587  5.86  0.  0.  0.
588  5.87  0.  0.  0.
589  5.88  0.  0.  0.
590  5.89  0.  0.  0.
591  5.90  0.  0.  0.
592  5.91  0.  0.  0.
593  5.92  0.  0.  0.
594  5.93  0.  0.  0.
595  5.94  0.  0.  0.
596  5.95  0.  0.  0.
597  5.96  0.  0.  0.
598  5.97  0.  0.  0.
599  5.98  0.  0.  0.
600  5.99  0.  0.  0.
1                        -9.4055194172986E+00 -2.0523677022389E-01
1  0.0000000000000E+00  2.5169008821546E-09  2.0015260948636E-08
2  1.0000000000000E-02  2.5758761986797E-03  4.6811181614649E-03
3  2.0000000000000E-02  1.0286365162320E-02  1.8660599342693E-02
4  3.0000000000000E-02  2.3080187215942E-02  4.1747657583887E-02
5  4.0000000000000E-02  4.0872338921428E-02  7.3627084937535E-02
6  5.0000000000000E-02  6.3544782268747E-02  1.1386336546290E-01
7  6.0000000000000E-02  9.0947399924356E-02  1.6190635738515E-01
8  7.0000000000000E-02  1.2289920705361E-01  2.1709846722381E-01
9  8.0000000000000E-02  1.5918980771716E-01  2.7868321967991E-01
10  9.0000000000000E-02  1.9958108146517E-01  3.4581510833933E-01
11  1.0000000000000E-01  2.4380908354559E-01  4.1757059506124E-01
12  1.1000000000000E-01  2.9158614012835E-01  4.9296011050612E-01
13  1.2000000000000E-01  3.4260311814944E-01  5.7094089483455E-01
14  1.3000000000000E-01  3.9653184781679E-01  6.5043050636329E-01
15  1.4000000000000E-01  4.5302767451029E-01  7.3032081706109E-01
16  1.5000000000000E-01  5.1173211576517E-01  8.0949230733562E-01
17  1.6000000000000E-01  5.7227559826039E-01  8.8682846870239E-01
18  1.7000000000000E-01  6.3428024924834E-01  9.6123012170444E-01
19  1.8000000000000E-01  6.9736271666209E-01  1.0316294578945E+00
20  1.9000000000000E-01  7.6113699221950E-01  1.0970036187947E+00
21  2.0000000000000E-01  8.2521721220651E-01  1.1563876314636E+00
22  2.1000000000000E-01  8.8922041125543E-01  1.2088865295529E+00
23  2.2000000000000E-01  9.5276920532718E-01  1.2536865003893E+00
24  2.3000000000000E-01  1.0154943812447E+00  1.2900649125381E+00
25  2.4000000000000E-01  1.0770373714889E+00  1.3173990942779E+00
26  2.5000000000000E-01  1.1370525945416E+00  1.3351737512356E+00
27  2.6000000000000E-01  1.1952096428132E+00  1.3429869308311E+00
28  2.7000000000000E-01  1.2511953021099E+00  1.3405544618860E+00
29  2.8000000000000E-01  1.3047153886417E+00  1.3277128194540E+00
30  2.9000000000000E-01  1.3554963917237E+00  1.3044203873101E+00
31  3.0000000000000E-01  1.4032869125557E+00  1.2707571132556E+00
32  3.1000000000000E-01  1.4478588917387E+00  1.2269225751064E+00
33  3.2000000000000E-01  1.4890086204854E+00  1.1732324975941E+00
34  3.3000000000000E-01  1.5265575327667E+00  1.1101137820678E+00
35  3.4000000000000E-01  1.5603527778856E+00  1.0380981315117E+00
36  3.5000000000000E-01  1.5902675751551E+00  9.5781437266284E-01
37  3.6000000000000E-01  1.6162013544550E+00  8.6997959462662E-01
38  3.7000000000000E-01  1.6380796884241E+00  7.7538923907247E-01
39  3.8000000000000E-01  1.6558540239016E+00  6.7490629060100E-01
40  3.9000000000000E-01  1.6695012219295E+00  5.6944972700915E-01
41  4.0000000000000E-01  1.6790229171658E+00  4.5998239776673E-01
42  4.1000000000000E-01  1.6844447089139E+00  3.4749850494367E-01
43  4.2000000000000E-01  1.6858151971401E+00  2.3301086401289E-01
44  4.3000000000000E-01  1.6832048778212E+00  1.1753812237491E-01
45  4.4000000000000E-01  1.6767049127381E+00  2.0921111308970E-03
46  4.5000000000000E-01  1.6664257893949E+00 -1.1233449935604E-01
47  4.6000000000000E-01  1.6524958871195E+00 -2.2478007710630E-01
48  4.7000000000000E-01  1.6350599655728E+00 -3.3432528628617E-01
49  4.8000000000000E-01  1.6142775918847E+00 -4.4010358408388E-01
50  4.9000000000000E-01  1.5903215224452E+00 -5.4131082970618E-01
51  5.0000000000000E-01  1.5633760550243E+00 -6.3721389415974E-01
52  5.1000000000000E-01  1.5336353663878E+00 -7.2715817647060E-01
53  5.2000000000000E-01  1.5013018499310E+00 -8.1057394999734E-01
54  5.3000000000000E-01  1.4665844670883E+00 -8.8698148115718E-01
55  5.4000000000000E-01  1.4296971254081E+00 -9.5599488186937E-01
56  5.5000000000000E-01  1.3908570952270E+00 -1.0173246759732E+00
57  5.6000000000000E-01  1.3502834758563E+00 -1.0707790784644E+00
58  5.7000000000000E-01  1.3081957211187E+00 -1.1162640042902E+00
59  5.8000000000000E-01  1.2648122329701E+00 -1.1537818403510E+00
60  5.9000000000000E-01  1.2203490308180E+00 -1.1834290300078E+00
61  6.0000000000000E-01  1.1750185030241E+00 -1.2053925335562E+00
62  6.1000000000000E-01  1.1290282459727E+00 -1.2199452406037E+00
63  6.2000000000000E-01  1.0825799950013E+00 -1.2274404209405E+00
64  6.3000000000000E-01  1.0358686504483E+00 -1.2283053092061E+00
65  6.4000000000000E-01  9.8908140107301E-01 -1.2230339253997E+00
66  6.5000000000000E-01  9.4239694616818E-01 -1.2121792380295E+00
67  6.6000000000000E-01  8.9598481680117E-01 -1.1963447795247E+00
68  6.7000000000000E-01  8.5000479581310E-01 -1.1761758245121E+00
69  6.8000000000000E-01  8.0460643546060E-01 -1.1523502408379E+00
70  6.9000000000000E-01  7.5992867091397E-01 -1.1255691209711E+00
71  7.0000000000000E-01  7.1609952722357E-01 -1.0965472978633E+00
72  7.1000000000000E-01  6.7323591683342E-01 -1.0660038446985E+00
73  7.2000000000000E-01  6.3144352425251E-01 -1.0346526525102E+00
74  7.3000000000000E-01  5.9081677408861E-01 -1.0031931736276E+00
75  7.4000000000000E-01  5.5143887829961E-01 -9.7230141262614E-01
76  7.5000000000000E-01  5.1338195821998E-01 -9.4262124015789E-01
77  7.6000000000000E-01  4.7670723666847E-01 -9.1475609898768E-01
78  7.7000000000000E-01  4.4146529523271E-01 -8.8926116599637E-01
79  7.8000000000000E-01  4.0769639165051E-01 -8.6663602904224E-01
80  7.9000000000000E-01  3.7543083206260E-01 -8.4731793357419E-01
81  8.0000000000000E-01  3.4468939279118E-01 -8.3167565089666E-01
82  8.1000000000000E-01  3.1548378619980E-01 -8.2000401809372E-01
83  8.2000000000000E-01  2.8781716510949E-01 -8.1251919887060E-01
84  8.3000000000000E-01  2.6168466018036E-01 -8.0935471495745E-01
85  8.4000000000000E-01  2.3707394461670E-01 -8.1055829919173E-01
86  8.5000000000000E-01  2.1396582051552E-01 -8.1608962384629E-01
87  8.6000000000000E-01  1.9233482115390E-01 -8.2581896104405E-01
88  8.7000000000000E-01  1.7214982350081E-01 -8.3952683601205E-01
89  8.8000000000000E-01  1.5337466524610E-01 -8.5690473823447E-01
90  8.9000000000000E-01  1.3596876066566E-01 -8.7755696000915E-01
91  9.0000000000000E-01  1.1988770969065E-01 -9.0100363620344E-01
92  9.1000000000000E-01  1.0508389462408E-01 -9.2668506283680E-01
93  9.2000000000000E-01  9.1507059052830E-02 -9.5396737517958E-01
94  9.3000000000000E-01  7.9104863643240E-02 -9.8214966803853E-01
95  9.4000000000000E-01  6.7823413684893E-02 -1.0104726414998E+00
96  9.5000000000000E-01  5.7607753466539E-02 -1.0381288543482E+00
97  9.6000000000000E-01  4.8402322830857E-02 -1.0642746644192E+00
98  9.7000000000000E-01  4.0151371564941E-02 -1.0880439300791E+00
99  9.8000000000000E-01  3.2799327641830E-02 -1.1085635396812E+00
100  9.9000000000000E-01  2.6291115735802E-02 -1.1249708261334E+00
101  1.0000000000000E+00  2.0572422890090E-02 -1.1364329115699E+00
102  1.0100000000000E+00  1.5589908718618E-02 -1.1421680125613E+00
103  1.0200000000000E+00  1.1291358070368E-02 -1.1414687194140E+00
104  1.0300000000000E+00  7.6257746717923E-03 -1.1337272440403E+00
105  1.0400000000000E+00  4.5434148843431E-03 -1.1184626098544E+00
106  1.0500000000000E+00  1.9957613644645E-03 -1.0953497343858E+00
107  1.0600000000000E+00 -6.4562916538872E-05 -1.0642503312490E+00
108  1.0700000000000E+00 -1.6839391519639E-03 -1.0252455329991E+00
109  1.0800000000000E+00 -2.9079538518532E-03 -9.7867011079651E-01
110  1.0900000000000E+00 -3.7816542405059E-03 -9.2514815239653E-01
111  1.1000000000000E+00 -4.3498534794943E-03 -8.6562984060588E-01
112  1.1100000000000E+00 -4.6574851629315E-03 -8.0142961089908E-01
113  1.1200000000000E+00 -4.7492752550007E-03 -7.3416104933084E-01
114  1.1300000000000E+00 -4.6674158750859E-03 -6.6539637384453E-01
115  1.1400000000000E+00 -4.4504172931542E-03 -5.9652121934322E-01
116  1.1500000000000E+00 -4.1329868403213E-03 -5.2873730944421E-01
117  1.1600000000000E+00 -3.7459832951057E-03 -4.6306836310650E-01
118  1.1700000000000E+00 -3.3164337628890E-03 -4.0036818892142E-01
119  1.1800000000000E+00 -2.8676022424264E-03 -3.4133027794636E-01
120  1.1900000000000E+00 -2.4191012742905E-03 -2.8649854146726E-01
121  1.2000000000000E+00 -1.9870381013740E-03 -2.3627883891454E-01
122  1.2100000000000E+00 -1.5841869676345E-03 -1.9095095067013E-01
123  1.2200000000000E+00 -1.2201789238618E-03 -1.5068071699241E-01
124  1.2300000000000E+00 -9.0170692802931E-04 -1.1553151067147E-01
125  1.2400000000000E+00 -6.3271366056461E-04 -8.5477051445795E-02
126  1.2500000000000E+00 -4.1549120723017E-04 -6.0336163955451E-02
127  1.2600000000000E+00 -2.5050172461169E-04 -3.9858748860769E-02
128  1.2700000000000E+00 -1.3366547726883E-04 -2.3932078450573E-02
129  1.2800000000000E+00 -5.8863533299634E-05 -1.2335559294261E-02
130  1.2900000000000E+00 -1.8205028364927E-05 -4.7625919821921E-03
131  1.3000000000000E+00 -2.2489352148638E-06 -8.3043147533007E-04
132  1.3100000000000E+00  7.4671728799521E-08  4.1557578640579E-05
133  1.3200000000000E+00 -2.4904991794250E-08 -1.1857892792822E-05
134  1.33  0.  0.
135  1.34  0.  0.
136  1.35  0.  0.
137  1.36  0.  0.
138  1.37  0.  0.
139  1.38  0.  0.
140  1.39  0.  0.
141  1.40  0.  0.
142  1.41  0.  0.