Mc    ONCVPSP-4.0.1  r_core=   1.60600   1.60600   1.60600
    115.0000     23.0000      211120    zatom,zion,pspd
     8      11   2     4   600     0    pspcod,pspxc,lmax,lloc,mmax,r2well
  5.99000000  5.00000000  0.00000000    rchrg fchrg qchrg
     2     2     2     0     0    nproj
     1     1           extension_switch
   0                         8.7694693298117E+00 -5.5041161655743E-01
     1  0.0000000000000E+00  1.3768752804566E-10  6.2074444195925E-10
     2  1.0000000000000E-02  7.8505690832841E-02  1.3183359120106E-02
     3  2.0000000000000E-02  1.5682817119759E-01  2.6371545870829E-02
     4  3.0000000000000E-02  2.3478463648326E-01  3.9568970501166E-02
     5  4.0000000000000E-02  3.1219309460625E-01  5.2779217643710E-02
     6  5.0000000000000E-02  3.8887277427091E-01  6.6004656211747E-02
     7  6.0000000000000E-02  4.6464453552622E-01  7.9246076092360E-02
     8  7.0000000000000E-02  5.3933128321872E-01  9.2502359824945E-02
     9  8.0000000000000E-02  6.1275838380440E-01  1.0577019683380E-01
    10  9.0000000000000E-02  6.8475408581468E-01  1.1904384702708E-01
    11  1.0000000000000E-01  7.5514994407743E-01  1.3231495969459E-01
    12  1.1000000000000E-01  8.2378124757703E-01  1.4557245264900E-01
    13  1.2000000000000E-01  8.9048745060037E-01  1.5880245547394E-01
    14  1.3000000000000E-01  9.5511260656490E-01  1.7198831958820E-01
    15  1.4000000000000E-01  1.0175058036626E+00  1.8511069662495E-01
    16  1.5000000000000E-01  1.0775216011870E+00  1.9814768538009E-01
    17  1.6000000000000E-01  1.1350204651425E+00  2.1107504632512E-01
    18  1.7000000000000E-01  1.1898692014731E+00  2.2386648142748E-01
    19  1.8000000000000E-01  1.2419413849934E+00  2.3649397579787E-01
    20  1.9000000000000E-01  1.2911177818680E+00  2.4892819650855E-01
    21  2.0000000000000E-01  1.3372867632651E+00  2.6113894282023E-01
    22  2.1000000000000E-01  1.3803447076163E+00  2.7309564103625E-01
    23  2.2000000000000E-01  1.4201963887473E+00  2.8476787628898E-01
    24  2.3000000000000E-01  1.4567553470113E+00  2.9612595277072E-01
    25  2.4000000000000E-01  1.4899442404550E+00  3.0714147326385E-01
    26  2.5000000000000E-01  1.5196951729893E+00  3.1778792831412E-01
    27  2.6000000000000E-01  1.5459499965144E+00  3.2804128503692E-01
    28  2.7000000000000E-01  1.5686605839702E+00  3.3788056535542E-01
    29  2.8000000000000E-01  1.5877890703493E+00  3.4728840344665E-01
    30  2.9000000000000E-01  1.6033080588154E+00  3.5625157231795E-01
    31  3.0000000000000E-01  1.6152007892216E+00  3.6476146975103E-01
    32  3.1000000000000E-01  1.6234612665164E+00  3.7281455433057E-01
    33  3.2000000000000E-01  1.6280943467553E+00  3.8041272291116E-01
    34  3.3000000000000E-01  1.6291157787101E+00  3.8756362166315E-01
    35  3.4000000000000E-01  1.6265521993685E+00  3.9428088376071E-01
    36  3.5000000000000E-01  1.6204410819579E+00  4.0058428782276E-01
    37  3.6000000000000E-01  1.6108306354873E+00  4.0649983237060E-01
    38  3.7000000000000E-01  1.5977796551902E+00  4.1205972280999E-01
    39  3.8000000000000E-01  1.5813573236531E+00  4.1730226875836E-01
    40  3.9000000000000E-01  1.5616429628348E+00  4.2227169090057E-01
    41  4.0000000000000E-01  1.5387257376020E+00  4.2701783794728E-01
    42  4.1000000000000E-01  1.5127043118341E+00  4.3159581566563E-01
    43  4.2000000000000E-01  1.4836864585732E+00  4.3606553133169E-01
    44  4.3000000000000E-01  1.4517886261038E+00  4.4049115829375E-01
    45  4.4000000000000E-01  1.4171354622463E+00  4.4494052661571E-01
    46  4.5000000000000E-01  1.3798592995226E+00  4.4948444696697E-01
    47  4.6000000000000E-01  1.3400996042036E+00  4.5419597602202E-01
    48  4.7000000000000E-01  1.2980023925671E+00  4.5914963260953E-01
    49  4.8000000000000E-01  1.2537196179810E+00  4.6442057469192E-01
    50  4.9000000000000E-01  1.2074085326723E+00  4.7008374794702E-01
    51  5.0000000000000E-01  1.1592310282483E+00  4.7621301725194E-01
    52  5.1000000000000E-01  1.1093529591975E+00  4.8288029272705E-01
    53  5.2000000000000E-01  1.0579434537101E+00  4.9015466217652E-01
    54  5.3000000000000E-01  1.0051742162280E+00  4.9810154175976E-01
    55  5.4000000000000E-01  9.5121882614963E-01  5.0678185654240E-01
    56  5.5000000000000E-01  8.9625203708909E-01  5.1625126220933E-01
    57  5.6000000000000E-01  8.4044908100887E-01  5.2655941868103E-01
    58  5.7000000000000E-01  7.8398498142674E-01  5.3774932566425E-01
    59  5.8000000000000E-01  7.2703387972923E-01  5.4985672930228E-01
    60  5.9000000000000E-01  6.6976837841916E-01  5.6290960807877E-01
    61  6.0000000000000E-01  6.1235890488057E-01  5.7692774499098E-01
    62  6.1000000000000E-01  5.5497309896776E-01  5.9192239175849E-01
    63  6.2000000000000E-01  4.9777522741949E-01  6.0789602949393E-01
    64  6.3000000000000E-01  4.4092562776941E-01  6.2484222885211E-01
    65  6.4000000000000E-01  3.8458018407536E-01  6.4274561121763E-01
    66  6.5000000000000E-01  3.2888983642765E-01  6.6158191101034E-01
    67  6.6000000000000E-01  2.7400012582607E-01  6.8131813770733E-01
    68  6.7000000000000E-01  2.2005077564259E-01  7.0191283472363E-01
    69  6.8000000000000E-01  1.6717531051648E-01  7.2331643088481E-01
    70  6.9000000000000E-01  1.1550071316711E-01  7.4547167888516E-01
    71  7.0000000000000E-01  6.5147119261478E-02  7.6831417387964E-01
    72  7.1000000000000E-01  1.6227550143597E-02  7.9177294422256E-01
    73  7.2000000000000E-01 -3.1152317074093E-02  8.1577110536438E-01
    74  7.3000000000000E-01 -7.6894342837312E-02  8.4022656706196E-01
    75  7.4000000000000E-01 -1.2090808292466E-01  8.6505278336493E-01
    76  7.5000000000000E-01 -1.6311091191733E-01  8.9015953432058E-01
    77  7.6000000000000E-01 -2.0342811379208E-01  9.1545372800152E-01
    78  7.7000000000000E-01 -2.4179294121023E-01  9.4084021130995E-01
    79  7.8000000000000E-01 -2.7814664518182E-01  9.6622257805134E-01
    80  7.9000000000000E-01 -3.1243847685270E-01  9.9150396299940E-01
    81  8.0000000000000E-01 -3.4462566319298E-01  1.0165878110879E+00
    82  8.1000000000000E-01 -3.7467335836009E-01  1.0413786114576E+00
    83  8.2000000000000E-01 -4.0255457246954E-01  1.0657825868480E+00
    84  8.3000000000000E-01 -4.2825007943471E-01  1.0897083297379E+00
    85  8.4000000000000E-01 -4.5174830543662E-01  1.1130673776991E+00
    86  8.5000000000000E-01 -4.7304519945828E-01  1.1357747216000E+00
    87  8.6000000000000E-01 -4.9214408717195E-01  1.1577492415805E+00
    88  8.7000000000000E-01 -5.0905550930377E-01  1.1789140670770E+00
    89  8.8000000000000E-01 -5.2379704542512E-01  1.1991968585895E+00
    90  8.9000000000000E-01 -5.3639312393818E-01  1.2185300103337E+00
    91  9.0000000000000E-01 -5.4687481883939E-01  1.2368507743714E+00
    92  9.1000000000000E-01 -5.5527963366437E-01  1.2541013082481E+00
    93  9.2000000000000E-01 -5.6165127284642E-01  1.2702286495554E+00
    94  9.3000000000000E-01 -5.6603940056228E-01  1.2851846221604E+00
    95  9.4000000000000E-01 -5.6849938699922E-01  1.2989256800674E+00
    96  9.5000000000000E-01 -5.6909204185926E-01  1.3114126959983E+00
    97  9.6000000000000E-01 -5.6788333482512E-01  1.3226107027527E+00
    98  9.7000000000000E-01 -5.6494410265024E-01  1.3324885962382E+00
    99  9.8000000000000E-01 -5.6034974250475E-01  1.3410188097210E+00
   100  9.9000000000000E-01 -5.5417989121390E-01  1.3481769693232E+00
   101  1.0000000000000E+00 -5.4651809006436E-01  1.3539415410846E+00
   102  1.0100000000000E+00 -5.3745143492956E-01  1.3582934799944E+00
   103  1.0200000000000E+00 -5.2707021157661E-01  1.3612158912949E+00
   104  1.0300000000000E+00 -5.1546751616330E-01  1.3626937140488E+00
   105  1.0400000000000E+00 -5.0273886111320E-01  1.3627134364627E+00
   106  1.0500000000000E+00 -4.8898176676685E-01  1.3612628517693E+00
   107  1.0600000000000E+00 -4.7429533944436E-01  1.3583308626058E+00
   108  1.0700000000000E+00 -4.5877983681604E-01  1.3539073407971E+00
   109  1.0800000000000E+00 -4.4253622175734E-01  1.3479830482811E+00
   110  1.0900000000000E+00 -4.2566570615919E-01  1.3405496236115E+00
   111  1.1000000000000E+00 -4.0826928646680E-01  1.3315996370716E+00
   112  1.1100000000000E+00 -3.9044727302613E-01  1.3211267159507E+00
   113  1.1200000000000E+00 -3.7229881561855E-01  1.3091257399964E+00
   114  1.1300000000000E+00 -3.5392142785675E-01  1.2955931054951E+00
   115  1.1400000000000E+00 -3.3541051339077E-01  1.2805270548679E+00
   116  1.1500000000000E+00 -3.1685889712678E-01  1.2639280671388E+00
   117  1.1600000000000E+00 -2.9835636488592E-01  1.2457993031536E+00
   118  1.1700000000000E+00 -2.7998921512156E-01  1.2261470980354E+00
   119  1.1800000000000E+00 -2.6183982646343E-01  1.2049814920822E+00
   120  1.1900000000000E+00 -2.4398624496372E-01  1.1823167901617E+00
   121  1.2000000000000E+00 -2.2650179497642E-01  1.1581721386706E+00
   122  1.2100000000000E+00 -2.0945471760546E-01  1.1325721083095E+00
   123  1.2200000000000E+00 -1.9290784060595E-01  1.1055472703075E+00
   124  1.2300000000000E+00 -1.7691828351302E-01  1.0771347533163E+00
   125  1.2400000000000E+00 -1.6153720160519E-01  1.0473787680069E+00
   126  1.2500000000000E+00 -1.4680957208281E-01  1.0163310864294E+00
   127  1.2600000000000E+00 -1.3277402555621E-01  9.8405146346674E-01
   128  1.2700000000000E+00 -1.1946272559774E-01  9.5060798820138E-01
   129  1.2800000000000E+00 -1.0690129871747E-01  9.1607735373236E-01
   130  1.2900000000000E+00 -9.5108816676412E-02  8.8054503491503E-01
   131  1.3000000000000E+00 -8.4097832562196E-02  8.4410536463308E-01
   132  1.3100000000000E+00 -7.3874471523116E-02  8.0686150053630E-01
   133  1.3200000000000E+00 -6.4438576491672E-02  7.6892527567880E-01
   134  1.3300000000000E+00 -5.5783908639572E-02  7.3041692813542E-01
   135  1.3400000000000E+00 -4.7898401698999E-02  6.9146470643629E-01
   136  1.3500000000000E+00 -4.0764468662723E-02  6.5220434953060E-01
   137  1.3600000000000E+00 -3.4359358754936E-02  6.1277844191600E-01
   138  1.3700000000000E+00 -2.8655561947350E-02  5.7333564654129E-01
   139  1.3800000000000E+00 -2.3621257696128E-02  5.3402982005430E-01
   140  1.3900000000000E+00 -1.9220803994569E-02  4.9501901692292E-01
   141  1.4000000000000E+00 -1.5415262293194E-02  4.5646439083802E-01
   142  1.4100000000000E+00 -1.2162953333575E-02  4.1852900360678E-01
   143  1.4200000000000E+00 -9.4200384859455E-03  3.8137655342443E-01
   144  1.4300000000000E+00 -7.1411207808759E-03  3.4517003594011E-01
   145  1.4400000000000E+00 -5.2798594860374E-03  3.1007035289524E-01
   146  1.4500000000000E+00 -3.7895918106469E-03  2.7623488426732E-01
   147  1.4600000000000E+00 -2.6239551232089E-03  2.4381604079553E-01
   148  1.4700000000000E+00 -1.7375029492166E-03  2.1295981446942E-01
   149  1.4800000000000E+00 -1.0863079764232E-03  1.8380434501847E-01
   150  1.4900000000000E+00 -6.2854533799523E-04  1.5647852063763E-01
   151  1.5000000000000E+00 -3.2504785021503E-04  1.3110064237966E-01
   152  1.5100000000000E+00 -1.3984485308169E-04  1.0777705425961E-01
   153  1.5200000000000E+00 -4.0592459767810E-05  8.6601292732886E-02
   154  1.5300000000000E+00  3.0900234385865E-07  6.7648672043690E-02
   155  1.5400000000000E+00  3.5371461305182E-06  5.0962180089004E-02
   156  1.5500000000000E+00 -1.0625448088996E-05  3.6596876645392E-02
   157  1.5600000000000E+00 -2.6502480347204E-05  2.4596219488588E-02
   158  1.5700000000000E+00 -3.4428419872385E-05  1.4983481603647E-02
   159  1.5800000000000E+00 -3.0749959232791E-05  7.7635955086598E-03
   160  1.5900000000000E+00 -1.7567587141507E-05  2.9036819649834E-03
   161  1.6000000000000E+00 -3.8697907220364E-06  4.4426267742623E-04
   162  1.6100000000000E+00  5.3177718719076E-07 -5.0561634917748E-05
   163  1.6200000000000E+00 -1.4421259255736E-07  1.5413052844632E-05
   164  1.63  0. -0.
   165  1.64 -0. -0.
   166  1.65  0.  0.
   167  1.66  0.  0.
   168  1.67  0.  0.
   169  1.68  0.  0.
   170  1.69  0.  0.
   171  1.70  0.  0.
   172  1.71  0.  0.
   173  1.72  0.  0.
   174  1.73  0.  0.
   175  1.74  0.  0.
   176  1.75  0.  0.
   177  1.76  0.  0.
   178  1.77  0.  0.
   179  1.78  0.  0.
   180  1.79  0.  0.
   181  1.80  0.  0.
   182  1.81  0.  0.
   183  1.82  0.  0.
   184  1.83  0.  0.
   185  1.84  0.  0.
   186  1.85  0.  0.
   187  1.86  0.  0.
   188  1.87  0.  0.
   189  1.88  0.  0.
   190  1.89  0.  0.
   191  1.90  0.  0.
   192  1.91  0.  0.
   193  1.92  0.  0.
   194  1.93  0.  0.
   195  1.94  0.  0.
   196  1.95  0.  0.
   197  1.96  0.  0.
   198  1.97  0.  0.
   199  1.98  0.  0.
   200  1.99  0.  0.
   201  2.00  0.  0.
   202  2.01  0.  0.
   203  2.02  0.  0.
   204  2.03  0.  0.
   205  2.04  0.  0.
   206  2.05  0.  0.
   207  2.06  0.  0.
   208  2.07  0.  0.
   209  2.08  0.  0.
   210  2.09  0.  0.
   211  2.10  0.  0.
   212  2.11  0.  0.
   213  2.12  0.  0.
   214  2.13  0.  0.
   215  2.14  0.  0.
   216  2.15  0.  0.
   217  2.16  0.  0.
   218  2.17  0.  0.
   219  2.18  0.  0.
   220  2.19  0.  0.
   221  2.20  0.  0.
   222  2.21  0.  0.
   223  2.22  0.  0.
   224  2.23  0.  0.
   225  2.24  0.  0.
   226  2.25  0.  0.
   227  2.26  0.  0.
   228  2.27  0.  0.
   229  2.28  0.  0.
   230  2.29  0.  0.
   231  2.30  0.  0.
   232  2.31  0.  0.
   233  2.32  0.  0.
   234  2.33  0.  0.
   235  2.34  0.  0.
   236  2.35  0.  0.
   237  2.36  0.  0.
   238  2.37  0.  0.
   239  2.38  0.  0.
   240  2.39  0.  0.
   241  2.40  0.  0.
   242  2.41  0.  0.
   243  2.42  0.  0.
   244  2.43  0.  0.
   245  2.44  0.  0.
   246  2.45  0.  0.
   247  2.46  0.  0.
   248  2.47  0.  0.
   249  2.48  0.  0.
   250  2.49  0.  0.
   251  2.50  0.  0.
   252  2.51  0.  0.
   253  2.52  0.  0.
   254  2.53  0.  0.
   255  2.54  0.  0.
   256  2.55  0.  0.
   257  2.56  0.  0.
   258  2.57  0.  0.
   259  2.58  0.  0.
   260  2.59  0.  0.
   261  2.60  0.  0.
   262  2.61  0.  0.
   263  2.62  0.  0.
   264  2.63  0.  0.
   265  2.64  0.  0.
   266  2.65  0.  0.
   267  2.66  0.  0.
   268  2.67  0.  0.
   269  2.68  0.  0.
   270  2.69  0.  0.
   271  2.70  0.  0.
   272  2.71  0.  0.
   273  2.72  0.  0.
   274  2.73  0.  0.
   275  2.74  0.  0.
   276  2.75  0.  0.
   277  2.76  0.  0.
   278  2.77  0.  0.
   279  2.78  0.  0.
   280  2.79  0.  0.
   281  2.80  0.  0.
   282  2.81  0.  0.
   283  2.82  0.  0.
   284  2.83  0.  0.
   285  2.84  0.  0.
   286  2.85  0.  0.
   287  2.86  0.  0.
   288  2.87  0.  0.
   289  2.88  0.  0.
   290  2.89  0.  0.
   291  2.90  0.  0.
   292  2.91  0.  0.
   293  2.92  0.  0.
   294  2.93  0.  0.
   295  2.94  0.  0.
   296  2.95  0.  0.
   297  2.96  0.  0.
   298  2.97  0.  0.
   299  2.98  0.  0.
   300  2.99  0.  0.
   301  3.00  0.  0.
   302  3.01  0.  0.
   303  3.02  0.  0.
   304  3.03  0.  0.
   305  3.04  0.  0.
   306  3.05  0.  0.
   307  3.06  0.  0.
   308  3.07  0.  0.
   309  3.08  0.  0.
   310  3.09  0.  0.
   311  3.10  0.  0.
   312  3.11  0.  0.
   313  3.12  0.  0.
   314  3.13  0.  0.
   315  3.14  0.  0.
   316  3.15  0.  0.
   317  3.16  0.  0.
   318  3.17  0.  0.
   319  3.18  0.  0.
   320  3.19  0.  0.
   321  3.20  0.  0.
   322  3.21  0.  0.
   323  3.22  0.  0.
   324  3.23  0.  0.
   325  3.24  0.  0.
   326  3.25  0.  0.
   327  3.26  0.  0.
   328  3.27  0.  0.
   329  3.28  0.  0.
   330  3.29  0.  0.
   331  3.30  0.  0.
   332  3.31  0.  0.
   333  3.32  0.  0.
   334  3.33  0.  0.
   335  3.34  0.  0.
   336  3.35  0.  0.
   337  3.36  0.  0.
   338  3.37  0.  0.
   339  3.38  0.  0.
   340  3.39  0.  0.
   341  3.40  0.  0.
   342  3.41  0.  0.
   343  3.42  0.  0.
   344  3.43  0.  0.
   345  3.44  0.  0.
   346  3.45  0.  0.
   347  3.46  0.  0.
   348  3.47  0.  0.
   349  3.48  0.  0.
   350  3.49  0.  0.
   351  3.50  0.  0.
   352  3.51  0.  0.
   353  3.52  0.  0.
   354  3.53  0.  0.
   355  3.54  0.  0.
   356  3.55  0.  0.
   357  3.56  0.  0.
   358  3.57  0.  0.
   359  3.58  0.  0.
   360  3.59  0.  0.
   361  3.60  0.  0.
   362  3.61  0.  0.
   363  3.62  0.  0.
   364  3.63  0.  0.
   365  3.64  0.  0.
   366  3.65  0.  0.
   367  3.66  0.  0.
   368  3.67  0.  0.
   369  3.68  0.  0.
   370  3.69  0.  0.
   371  3.70  0.  0.
   372  3.71  0.  0.
   373  3.72  0.  0.
   374  3.73  0.  0.
   375  3.74  0.  0.
   376  3.75  0.  0.
   377  3.76  0.  0.
   378  3.77  0.  0.
   379  3.78  0.  0.
   380  3.79  0.  0.
   381  3.80  0.  0.
   382  3.81  0.  0.
   383  3.82  0.  0.
   384  3.83  0.  0.
   385  3.84  0.  0.
   386  3.85  0.  0.
   387  3.86  0.  0.
   388  3.87  0.  0.
   389  3.88  0.  0.
   390  3.89  0.  0.
   391  3.90  0.  0.
   392  3.91  0.  0.
   393  3.92  0.  0.
   394  3.93  0.  0.
   395  3.94  0.  0.
   396  3.95  0.  0.
   397  3.96  0.  0.
   398  3.97  0.  0.
   399  3.98  0.  0.
   400  3.99  0.  0.
   401  4.00  0.  0.
   402  4.01  0.  0.
   403  4.02  0.  0.
   404  4.03  0.  0.
   405  4.04  0.  0.
   406  4.05  0.  0.
   407  4.06  0.  0.
   408  4.07  0.  0.
   409  4.08  0.  0.
   410  4.09  0.  0.
   411  4.10  0.  0.
   412  4.11  0.  0.
   413  4.12  0.  0.
   414  4.13  0.  0.
   415  4.14  0.  0.
   416  4.15  0.  0.
   417  4.16  0.  0.
   418  4.17  0.  0.
   419  4.18  0.  0.
   420  4.19  0.  0.
   421  4.20  0.  0.
   422  4.21  0.  0.
   423  4.22  0.  0.
   424  4.23  0.  0.
   425  4.24  0.  0.
   426  4.25  0.  0.
   427  4.26  0.  0.
   428  4.27  0.  0.
   429  4.28  0.  0.
   430  4.29  0.  0.
   431  4.30  0.  0.
   432  4.31  0.  0.
   433  4.32  0.  0.
   434  4.33  0.  0.
   435  4.34  0.  0.
   436  4.35  0.  0.
   437  4.36  0.  0.
   438  4.37  0.  0.
   439  4.38  0.  0.
   440  4.39  0.  0.
   441  4.40  0.  0.
   442  4.41  0.  0.
   443  4.42  0.  0.
   444  4.43  0.  0.
   445  4.44  0.  0.
   446  4.45  0.  0.
   447  4.46  0.  0.
   448  4.47  0.  0.
   449  4.48  0.  0.
   450  4.49  0.  0.
   451  4.50  0.  0.
   452  4.51  0.  0.
   453  4.52  0.  0.
   454  4.53  0.  0.
   455  4.54  0.  0.
   456  4.55  0.  0.
   457  4.56  0.  0.
   458  4.57  0.  0.
   459  4.58  0.  0.
   460  4.59  0.  0.
   461  4.60  0.  0.
   462  4.61  0.  0.
   463  4.62  0.  0.
   464  4.63  0.  0.
   465  4.64  0.  0.
   466  4.65  0.  0.
   467  4.66  0.  0.
   468  4.67  0.  0.
   469  4.68  0.  0.
   470  4.69  0.  0.
   471  4.70  0.  0.
   472  4.71  0.  0.
   473  4.72  0.  0.
   474  4.73  0.  0.
   475  4.74  0.  0.
   476  4.75  0.  0.
   477  4.76  0.  0.
   478  4.77  0.  0.
   479  4.78  0.  0.
   480  4.79  0.  0.
   481  4.80  0.  0.
   482  4.81  0.  0.
   483  4.82  0.  0.
   484  4.83  0.  0.
   485  4.84  0.  0.
   486  4.85  0.  0.
   487  4.86  0.  0.
   488  4.87  0.  0.
   489  4.88  0.  0.
   490  4.89  0.  0.
   491  4.90  0.  0.
   492  4.91  0.  0.
   493  4.92  0.  0.
   494  4.93  0.  0.
   495  4.94  0.  0.
   496  4.95  0.  0.
   497  4.96  0.  0.
   498  4.97  0.  0.
   499  4.98  0.  0.
   500  4.99  0.  0.
   501  5.00  0.  0.
   502  5.01  0.  0.
   503  5.02  0.  0.
   504  5.03  0.  0.
   505  5.04  0.  0.
   506  5.05  0.  0.
   507  5.06  0.  0.
   508  5.07  0.  0.
   509  5.08  0.  0.
   510  5.09  0.  0.
   511  5.10  0.  0.
   512  5.11  0.  0.
   513  5.12  0.  0.
   514  5.13  0.  0.
   515  5.14  0.  0.
   516  5.15  0.  0.
   517  5.16  0.  0.
   518  5.17  0.  0.
   519  5.18  0.  0.
   520  5.19  0.  0.
   521  5.20  0.  0.
   522  5.21  0.  0.
   523  5.22  0.  0.
   524  5.23  0.  0.
   525  5.24  0.  0.
   526  5.25  0.  0.
   527  5.26  0.  0.
   528  5.27  0.  0.
   529  5.28  0.  0.
   530  5.29  0.  0.
   531  5.30  0.  0.
   532  5.31  0.  0.
   533  5.32  0.  0.
   534  5.33  0.  0.
   535  5.34  0.  0.
   536  5.35  0.  0.
   537  5.36  0.  0.
   538  5.37  0.  0.
   539  5.38  0.  0.
   540  5.39  0.  0.
   541  5.40  0.  0.
   542  5.41  0.  0.
   543  5.42  0.  0.
   544  5.43  0.  0.
   545  5.44  0.  0.
   546  5.45  0.  0.
   547  5.46  0.  0.
   548  5.47  0.  0.
   549  5.48  0.  0.
   550  5.49  0.  0.
   551  5.50  0.  0.
   552  5.51  0.  0.
   553  5.52  0.  0.
   554  5.53  0.  0.
   555  5.54  0.  0.
   556  5.55  0.  0.
   557  5.56  0.  0.
   558  5.57  0.  0.
   559  5.58  0.  0.
   560  5.59  0.  0.
   561  5.60  0.  0.
   562  5.61  0.  0.
   563  5.62  0.  0.
   564  5.63  0.  0.
   565  5.64  0.  0.
   566  5.65  0.  0.
   567  5.66  0.  0.
   568  5.67  0.  0.
   569  5.68  0.  0.
   570  5.69  0.  0.
   571  5.70  0.  0.
   572  5.71  0.  0.
   573  5.72  0.  0.
   574  5.73  0.  0.
   575  5.74  0.  0.
   576  5.75  0.  0.
   577  5.76  0.  0.
   578  5.77  0.  0.
   579  5.78  0.  0.
   580  5.79  0.  0.
   581  5.80  0.  0.
   582  5.81  0.  0.
   583  5.82  0.  0.
   584  5.83  0.  0.
   585  5.84  0.  0.
   586  5.85  0.  0.
   587  5.86  0.  0.
   588  5.87  0.  0.
   589  5.88  0.  0.
   590  5.89  0.  0.
   591  5.90  0.  0.
   592  5.91  0.  0.
   593  5.92  0.  0.
   594  5.93  0.  0.
   595  5.94  0.  0.
   596  5.95  0.  0.
   597  5.96  0.  0.
   598  5.97  0.  0.
   599  5.98  0.  0.
   600  5.99  0.  0.
   1                         6.1022058896330E+00 -2.9905312321379E-01
     1  0.0000000000000E+00 -1.4936409054034E-10 -9.1819170391916E-09
     2  1.0000000000000E-02  1.4528368002988E-03  8.5551790318430E-04
     3  2.0000000000000E-02  5.8063343322932E-03  3.4258607040485E-03
     4  3.0000000000000E-02  1.3045465228885E-02  7.7221674877107E-03
     5  4.0000000000000E-02  2.3145221442055E-02  1.3762248239296E-02
     6  5.0000000000000E-02  3.6070670930070E-02  2.1569470151933E-02
     7  6.0000000000000E-02  5.1777037691636E-02  3.1171236139349E-02
     8  7.0000000000000E-02  7.0209805793889E-02  4.2597092297982E-02
     9  8.0000000000000E-02  9.1304848190459E-02  5.5876510245409E-02
    10  9.0000000000000E-02  1.1498858124967E-01  7.1036398491260E-02
    11  1.0000000000000E-01  1.4117814600659E-01  8.8098404101579E-02
    12  1.1000000000000E-01  1.6978161721200E-01  1.0707607174697E-01
    13  1.2000000000000E-01  2.0069824127354E-01  1.2797193165262E-01
    14  1.3000000000000E-01  2.3381870416613E-01  1.5077459089789E-01
    15  1.4000000000000E-01  2.6902543032924E-01  1.7545590387470E-01
    16  1.5000000000000E-01  3.0619291346663E-01  2.0196829747107E-01
    17  1.6000000000000E-01  3.4518808001945E-01  2.3024232469344E-01
    18  1.7000000000000E-01  3.8587068589793E-01  2.6018451700497E-01
    19  1.8000000000000E-01  4.2809374683122E-01  2.9167560069551E-01
    20  1.9000000000000E-01  4.7170400243286E-01  3.2456913620174E-01
    21  2.0000000000000E-01  5.1654241378327E-01  3.5869063158000E-01
    22  2.1000000000000E-01  5.6244469400645E-01  3.9383717244577E-01
    23  2.2000000000000E-01  6.0924187096874E-01  4.2977760080116E-01
    24  2.3000000000000E-01  6.5676088086057E-01  4.6625326446479E-01
    25  2.4000000000000E-01  7.0482519104173E-01  5.0297934750516E-01
    26  2.5000000000000E-01  7.5325545014534E-01  5.3964678038017E-01
    27  2.6000000000000E-01  8.0187016304966E-01  5.7592471663123E-01
    28  2.7000000000000E-01  8.5048638794929E-01  6.1146355120545E-01
    29  2.8000000000000E-01  8.9892045239345E-01  6.4589844402024E-01
    30  2.9000000000000E-01  9.4698868481602E-01  6.7885330146984E-01
    31  3.0000000000000E-01  9.9450815776697E-01  7.0994515842704E-01
    32  3.1000000000000E-01  1.0412974387724E+00  7.3878889412267E-01
    33  3.2000000000000E-01  1.0871773445082E+00  7.6500220728346E-01
    34  3.3000000000000E-01  1.1319716937731E+00  7.8821076924357E-01
    35  3.4000000000000E-01  1.1755080545971E+00  8.0805346856432E-01
    36  3.5000000000000E-01  1.2176184807240E+00  8.2418765711642E-01
    37  3.6000000000000E-01  1.2581402326605E+00  8.3629430568776E-01
    38  3.7000000000000E-01  1.2969164785023E+00  8.4408297703304E-01
    39  3.8000000000000E-01  1.3337969698134E+00  8.4729652590075E-01
    40  3.9000000000000E-01  1.3686386879665E+00  8.4571543894745E-01
    41  4.0000000000000E-01  1.4013064565348E+00  8.3916173253034E-01
    42  4.1000000000000E-01  1.4316735155642E+00  8.2750233308029E-01
    43  4.2000000000000E-01  1.4596220538453E+00  8.1065187298295E-01
    44  4.3000000000000E-01  1.4850436956414E+00  7.8857484449595E-01
    45  4.4000000000000E-01  1.5078399387088E+00  7.6128706503309E-01
    46  4.5000000000000E-01  1.5279225408633E+00  7.2885641895706E-01
    47  4.6000000000000E-01  1.5452138527941E+00  6.9140285362398E-01
    48  4.7000000000000E-01  1.5596470953038E+00  6.4909762058253E-01
    49  4.8000000000000E-01  1.5711665796394E+00  6.0216176629881E-01
    50  4.9000000000000E-01  1.5797278700869E+00  5.5086389030284E-01
    51  5.0000000000000E-01  1.5852978885025E+00  4.9551720197245E-01
    52  5.1000000000000E-01  1.5878549609591E+00  4.3647592002965E-01
    53  5.2000000000000E-01  1.5873888071743E+00  3.7413107097238E-01
    54  5.3000000000000E-01  1.5839004738567E+00  3.0890575386053E-01
    55  5.4000000000000E-01  1.5774022135560E+00  2.4124994889768E-01
    56  5.5000000000000E-01  1.5679173110160E+00  1.7163495589469E-01
    57  5.6000000000000E-01  1.5554798594051E+00  1.0054755579154E-01
    58  5.7000000000000E-01  1.5401344891396E+00  2.8483993798997E-02
    59  5.8000000000000E-01  1.5219360523012E+00 -4.4056113716125E-02
    60  5.9000000000000E-01  1.5009492658933E+00 -1.1657584482292E-01
    61  6.0000000000000E-01  1.4772483173692E+00 -1.8858690661602E-01
    62  6.1000000000000E-01  1.4509164360055E+00 -2.5961533758912E-01
    63  6.2000000000000E-01  1.4220454337747E+00 -3.2920688078259E-01
    64  6.3000000000000E-01  1.3907352194059E+00 -3.9693193677325E-01
    65  6.4000000000000E-01  1.3570932893043E+00 -4.6239001342381E-01
    66  6.5000000000000E-01  1.3212341989341E+00 -5.2521359879402E-01
    67  6.6000000000000E-01  1.2832790181584E+00 -5.8507139456401E-01
    68  6.7000000000000E-01  1.2433547738804E+00 -6.4167085953451E-01
    69  6.8000000000000E-01  1.2015938831453E+00 -6.9476002601876E-01
    70  6.9000000000000E-01  1.1581335796456E+00 -7.4412856598193E-01
    71  7.0000000000000E-01  1.1131153363363E+00 -7.8960809834529E-01
    72  7.1000000000000E-01  1.0666842866097E+00 -8.3107174367714E-01
    73  7.2000000000000E-01  1.0189886462156E+00 -8.6843294725295E-01
    74  7.3000000000000E-01  9.7017913784095E-01 -9.0164360589223E-01
    75  7.4000000000000E-01  9.2040842000111E-01 -9.3069154778745E-01
    76  7.5000000000000E-01  8.6983052163444E-01 -9.5559742745035E-01
    77  7.6000000000000E-01  8.1860028355426E-01 -9.7641110965456E-01
    78  7.7000000000000E-01  7.6687280769209E-01 -9.9320762660512E-01
    79  7.8000000000000E-01  7.1480291487379E-01 -1.0060828013027E+00
    80  7.9000000000000E-01  6.6254461170890E-01 -1.0151486369980E+00
    81  8.0000000000000E-01  6.1025056704626E-01 -1.0205285776033E+00
    82  8.1000000000000E-01  5.5807159835926E-01 -1.0223527468150E+00
    83  8.2000000000000E-01  5.0615616837330E-01 -1.0207532744381E+00
    84  8.3000000000000E-01  4.5464989223648E-01 -1.0158598169336E+00
    85  8.4000000000000E-01  4.0369505556296E-01 -1.0077953755613E+00
    86  8.5000000000000E-01  3.5343014374419E-01 -9.9667250968615E-01
    87  8.6000000000000E-01  3.0398938302525E-01 -9.8259003497165E-01
    88  8.7000000000000E-01  2.5550229397741E-01 -9.6563028640419E-01
    89  8.8000000000000E-01  2.0809325816050E-01 -9.4585701457392E-01
    90  8.9000000000000E-01  1.6188109895385E-01 -9.2331397056704E-01
    91  9.0000000000000E-01  1.1697867773755E-01 -8.9802422045491E-01
    92  9.1000000000000E-01  7.3492506818987E-02 -8.6999021495907E-01
    93  9.2000000000000E-01  3.1522380717815E-02 -8.3919462372212E-01
    94  9.3000000000000E-01 -8.8389723634041E-03 -8.0560192703475E-01
    95  9.4000000000000E-01 -4.7506216851284E-02 -7.6916074117993E-01
    96  9.5000000000000E-01 -8.4401711678974E-02 -7.2980683708711E-01
    97  9.6000000000000E-01 -1.1945578535046E-01 -6.8746679607512E-01
    98  9.7000000000000E-01 -1.5260698168491E-01 -6.4206223141924E-01
    99  9.8000000000000E-01 -1.8380227364441E-01 -5.9351449062686E-01
   100  9.9000000000000E-01 -2.1299724260299E-01 -5.4174974093227E-01
   101  1.0000000000000E+00 -2.4015622041987E-01 -4.8670432989307E-01
   102  1.0100000000000E+00 -2.6525239173786E-01 -4.2833030433264E-01
   103  1.0200000000000E+00 -2.8826785404424E-01 -3.6660096442332E-01
   104  1.0300000000000E+00 -3.0919363320605E-01 -3.0151632560430E-01
   105  1.0400000000000E+00 -3.2802965242757E-01 -2.3310835940703E-01
   106  1.0500000000000E+00 -3.4478465287281E-01 -1.6144588518175E-01
   107  1.0600000000000E+00 -3.5947606454926E-01 -8.6638988216888E-02
   108  1.0700000000000E+00 -3.7212982645876E-01 -8.8428457993182E-03
   109  1.0800000000000E+00 -3.8278015548034E-01  7.1739148724042E-02
   110  1.0900000000000E+00 -3.9146926395717E-01  1.5485306290741E-01
   111  1.1000000000000E+00 -3.9824702650355E-01  2.4019298916620E-01
   112  1.1100000000000E+00 -4.0317059712537E-01  3.2740056662484E-01
   113  1.1200000000000E+00 -4.0630397834662E-01  4.1606551497930E-01
   114  1.1300000000000E+00 -4.0771754464766E-01  5.0572721626969E-01
   115  1.1400000000000E+00 -4.0748752313754E-01  5.9587736113189E-01
   116  1.1500000000000E+00 -4.0569543499214E-01  6.8596365599720E-01
   117  1.1600000000000E+00 -4.0242750178118E-01  7.7539456721895E-01
   118  1.1700000000000E+00 -3.9777402137013E-01  8.6354505757942E-01
   119  1.1800000000000E+00 -3.9182871860519E-01  9.4976325051929E-01
   120  1.1900000000000E+00 -3.8468807646324E-01  1.0333779379945E+00
   121  1.2000000000000E+00 -3.7645065375943E-01  1.1137068296879E+00
   122  1.2100000000000E+00 -3.6721639584954E-01  1.1900654244624E+00
   123  1.2200000000000E+00 -3.5708594502726E-01  1.2617763700986E+00
   124  1.2300000000000E+00 -3.4615995749745E-01  1.3281791645305E+00
   125  1.2400000000000E+00 -3.3453843389348E-01  1.3886400414575E+00
   126  1.2500000000000E+00 -3.2232007029967E-01  1.4425618755123E+00
   127  1.2600000000000E+00 -3.0960163663222E-01  1.4893939372841E+00