Mc    ONCVPSP-4.0.1  r_core=   1.60600   1.60600   1.60600
115.0000     23.0000      220307    zatom,zion,pspd
8      11   2     4   600     0    pspcod,pspxc,lmax,lloc,mmax,r2well
5.99000000  5.00000000  0.00000000    rchrg fchrg qchrg
2     2     2     0     0    nproj
1     1           extension_switch
0                         8.7694693295416E+00 -5.5041161654967E-01
1  0.0000000000000E+00  1.3768630680033E-10  6.2068181150288E-10
2  1.0000000000000E-02  7.8505690833067E-02  1.3183359129770E-02
3  2.0000000000000E-02  1.5682817119804E-01  2.6371545890107E-02
4  3.0000000000000E-02  2.3478463648393E-01  3.9568970529955E-02
5  4.0000000000000E-02  3.1219309460713E-01  5.2779217681857E-02
6  5.0000000000000E-02  3.8887277427201E-01  6.6004656259050E-02
7  6.0000000000000E-02  4.6464453552752E-01  7.9246076148568E-02
8  7.0000000000000E-02  5.3933128322022E-01  9.2502359889757E-02
9  8.0000000000000E-02  6.1275838380608E-01  1.0577019690687E-01
10  9.0000000000000E-02  6.8475408581653E-01  1.1904384710801E-01
11  1.0000000000000E-01  7.5514994407944E-01  1.3231495978295E-01
12  1.1000000000000E-01  8.2378124757918E-01  1.4557245274431E-01
13  1.2000000000000E-01  8.9048745060265E-01  1.5880245557568E-01
14  1.3000000000000E-01  9.5511260656729E-01  1.7198831969582E-01
15  1.4000000000000E-01  1.0175058036651E+00  1.8511069673785E-01
16  1.5000000000000E-01  1.0775216011896E+00  1.9814768549765E-01
17  1.6000000000000E-01  1.1350204651451E+00  2.1107504644668E-01
18  1.7000000000000E-01  1.1898692014757E+00  2.2386648155235E-01
19  1.8000000000000E-01  1.2419413849960E+00  2.3649397592535E-01
20  1.9000000000000E-01  1.2911177818706E+00  2.4892819663791E-01
21  2.0000000000000E-01  1.3372867632676E+00  2.6113894295073E-01
22  2.1000000000000E-01  1.3803447076187E+00  2.7309564116712E-01
23  2.2000000000000E-01  1.4201963887496E+00  2.8476787641945E-01
24  2.3000000000000E-01  1.4567553470135E+00  2.9612595290001E-01
25  2.4000000000000E-01  1.4899442404570E+00  3.0714147339118E-01
26  2.5000000000000E-01  1.5196951729911E+00  3.1778792843871E-01
27  2.6000000000000E-01  1.5459499965160E+00  3.2804128515800E-01
28  2.7000000000000E-01  1.5686605839715E+00  3.3788056547222E-01
29  2.8000000000000E-01  1.5877890703503E+00  3.4728840355842E-01
30  2.9000000000000E-01  1.6033080588161E+00  3.5625157242394E-01
31  3.0000000000000E-01  1.6152007892219E+00  3.6476146985055E-01
32  3.1000000000000E-01  1.6234612665163E+00  3.7281455442291E-01
33  3.2000000000000E-01  1.6280943467548E+00  3.8041272299568E-01
34  3.3000000000000E-01  1.6291157787092E+00  3.8756362173920E-01
35  3.4000000000000E-01  1.6265521993671E+00  3.9428088382771E-01
36  3.5000000000000E-01  1.6204410819560E+00  4.0058428788015E-01
37  3.6000000000000E-01  1.6108306354850E+00  4.0649983241788E-01
38  3.7000000000000E-01  1.5977796551873E+00  4.1205972284671E-01
39  3.8000000000000E-01  1.5813573236497E+00  4.1730226878409E-01
40  3.9000000000000E-01  1.5616429628310E+00  4.2227169091496E-01
41  4.0000000000000E-01  1.5387257375976E+00  4.2701783795001E-01
42  4.1000000000000E-01  1.5127043118291E+00  4.3159581565647E-01
43  4.2000000000000E-01  1.4836864585677E+00  4.3606553131043E-01
44  4.3000000000000E-01  1.4517886260978E+00  4.4049115826026E-01
45  4.4000000000000E-01  1.4171354622398E+00  4.4494052656991E-01
46  4.5000000000000E-01  1.3798592995156E+00  4.4948444690887E-01
47  4.6000000000000E-01  1.3400996041962E+00  4.5419597595165E-01
48  4.7000000000000E-01  1.2980023925593E+00  4.5914963252699E-01
49  4.8000000000000E-01  1.2537196179728E+00  4.6442057459740E-01
50  4.9000000000000E-01  1.2074085326636E+00  4.7008374784073E-01
51  5.0000000000000E-01  1.1592310282393E+00  4.7621301713419E-01
52  5.1000000000000E-01  1.1093529591881E+00  4.8288029259817E-01
53  5.2000000000000E-01  1.0579434537005E+00  4.9015466203691E-01
54  5.3000000000000E-01  1.0051742162181E+00  4.9810154160988E-01
55  5.4000000000000E-01  9.5121882613954E-01  5.0678185638274E-01
56  5.5000000000000E-01  8.9625203707884E-01  5.1625126204045E-01
57  5.6000000000000E-01  8.4044908099852E-01  5.2655941850351E-01
58  5.7000000000000E-01  7.8398498141633E-01  5.3774932547875E-01
59  5.8000000000000E-01  7.2703387971880E-01  5.4985672910946E-01
60  5.9000000000000E-01  6.6976837840877E-01  5.6290960787933E-01
61  6.0000000000000E-01  6.1235890487026E-01  5.7692774478565E-01
62  6.1000000000000E-01  5.5497309895758E-01  5.9192239154804E-01
63  6.2000000000000E-01  4.9777522740948E-01  6.0789602927914E-01
64  6.3000000000000E-01  4.4092562775961E-01  6.2484222863377E-01
65  6.4000000000000E-01  3.8458018406582E-01  6.4274561099656E-01
66  6.5000000000000E-01  3.2888983641841E-01  6.6158191078737E-01
67  6.6000000000000E-01  2.7400012581716E-01  6.8131813748327E-01
68  6.7000000000000E-01  2.2005077563404E-01  7.0191283449931E-01
69  6.8000000000000E-01  1.6717531050831E-01  7.2331643066102E-01
70  6.9000000000000E-01  1.1550071315934E-01  7.4547167866274E-01
71  7.0000000000000E-01  6.5147119254141E-02  7.6831417365936E-01
72  7.1000000000000E-01  1.6227550136698E-02  7.9177294400520E-01
73  7.2000000000000E-01 -3.1152317080547E-02  8.1577110515070E-01
74  7.3000000000000E-01 -7.6894342843316E-02  8.4022656685270E-01
75  7.4000000000000E-01 -1.2090808293022E-01  8.6505278316079E-01
76  7.5000000000000E-01 -1.6311091192245E-01  8.9015953412223E-01
77  7.6000000000000E-01 -2.0342811379678E-01  9.1545372780961E-01
78  7.7000000000000E-01 -2.4179294121452E-01  9.4084021112507E-01
79  7.8000000000000E-01 -2.7814664518573E-01  9.6622257787408E-01
80  7.9000000000000E-01 -3.1243847685625E-01  9.9150396283029E-01
81  8.0000000000000E-01 -3.4462566319620E-01  1.0165878109274E+00
82  8.1000000000000E-01 -3.7467335836304E-01  1.0413786113062E+00
83  8.2000000000000E-01 -4.0255457247223E-01  1.0657825867060E+00
84  8.3000000000000E-01 -4.2825007943721E-01  1.0897083296058E+00
85  8.4000000000000E-01 -4.5174830543896E-01  1.1130673775772E+00
86  8.5000000000000E-01 -4.7304519946052E-01  1.1357747214885E+00
87  8.6000000000000E-01 -4.9214408717414E-01  1.1577492414797E+00
88  8.7000000000000E-01 -5.0905550930597E-01  1.1789140669870E+00
89  8.8000000000000E-01 -5.2379704542738E-01  1.1991968585105E+00
90  8.9000000000000E-01 -5.3639312394056E-01  1.2185300102657E+00
91  9.0000000000000E-01 -5.4687481884194E-01  1.2368507743145E+00
92  9.1000000000000E-01 -5.5527963366715E-01  1.2541013082023E+00
93  9.2000000000000E-01 -5.6165127284948E-01  1.2702286495207E+00
94  9.3000000000000E-01 -5.6603940056569E-01  1.2851846221366E+00
95  9.4000000000000E-01 -5.6849938700302E-01  1.2989256800545E+00
96  9.5000000000000E-01 -5.6909204186349E-01  1.3114126959962E+00
97  9.6000000000000E-01 -5.6788333482985E-01  1.3226107027611E+00
98  9.7000000000000E-01 -5.6494410265550E-01  1.3324885962569E+00
99  9.8000000000000E-01 -5.6034974251059E-01  1.3410188097497E+00
100  9.9000000000000E-01 -5.5417989122035E-01  1.3481769693617E+00
101  1.0000000000000E+00 -5.4651809007145E-01  1.3539415411325E+00
102  1.0100000000000E+00 -5.3745143493732E-01  1.3582934800514E+00
103  1.0200000000000E+00 -5.2707021158507E-01  1.3612158913605E+00
104  1.0300000000000E+00 -5.1546751617248E-01  1.3626937141227E+00
105  1.0400000000000E+00 -5.0273886112310E-01  1.3627134365445E+00
106  1.0500000000000E+00 -4.8898176677749E-01  1.3612628518585E+00
107  1.0600000000000E+00 -4.7429533945574E-01  1.3583308627020E+00
108  1.0700000000000E+00 -4.5877983682816E-01  1.3539073408997E+00
109  1.0800000000000E+00 -4.4253622177019E-01  1.3479830483897E+00
110  1.0900000000000E+00 -4.2566570617276E-01  1.3405496237255E+00
111  1.1000000000000E+00 -4.0826928648108E-01  1.3315996371905E+00
112  1.1100000000000E+00 -3.9044727304110E-01  1.3211267160740E+00
113  1.1200000000000E+00 -3.7229881563418E-01  1.3091257401236E+00
114  1.1300000000000E+00 -3.5392142787301E-01  1.2955931056255E+00
115  1.1400000000000E+00 -3.3541051340763E-01  1.2805270550010E+00
116  1.1500000000000E+00 -3.1685889714421E-01  1.2639280672741E+00
117  1.1600000000000E+00 -2.9835636490388E-01  1.2457993032905E+00
118  1.1700000000000E+00 -2.7998921514000E-01  1.2261470981734E+00
119  1.1800000000000E+00 -2.6183982648232E-01  1.2049814922207E+00
120  1.1900000000000E+00 -2.4398624498301E-01  1.1823167903001E+00
121  1.2000000000000E+00 -2.2650179499606E-01  1.1581721388084E+00
122  1.2100000000000E+00 -2.0945471762541E-01  1.1325721084462E+00
123  1.2200000000000E+00 -1.9290784062615E-01  1.1055472704425E+00
124  1.2300000000000E+00 -1.7691828353342E-01  1.0771347534492E+00
125  1.2400000000000E+00 -1.6153720162575E-01  1.0473787681372E+00
126  1.2500000000000E+00 -1.4680957210346E-01  1.0163310865566E+00
127  1.2600000000000E+00 -1.3277402557691E-01  9.8405146359046E-01
128  1.2700000000000E+00 -1.1946272561844E-01  9.5060798832118E-01
129  1.2800000000000E+00 -1.0690129873811E-01  9.1607735384787E-01
130  1.2900000000000E+00 -9.5108816696954E-02  8.8054503502588E-01
131  1.3000000000000E+00 -8.4097832582586E-02  8.4410536473896E-01
132  1.3100000000000E+00 -7.3874471543306E-02  8.0686150063693E-01
133  1.3200000000000E+00 -6.4438576511617E-02  7.6892527577393E-01
134  1.3300000000000E+00 -5.5783908659225E-02  7.3041692822485E-01
135  1.3400000000000E+00 -4.7898401718316E-02  6.9146470651985E-01
136  1.3500000000000E+00 -4.0764468681663E-02  6.5220434960816E-01
137  1.3600000000000E+00 -3.4359358773458E-02  6.1277844198747E-01
138  1.3700000000000E+00 -2.8655561965412E-02  5.7333564660665E-01
139  1.3800000000000E+00 -2.3621257713696E-02  5.3402982011353E-01
140  1.3900000000000E+00 -1.9220804011603E-02  4.9501901697610E-01
141  1.4000000000000E+00 -1.5415262309660E-02  4.5646439088523E-01
142  1.4100000000000E+00 -1.2162953349439E-02  4.1852900364817E-01
143  1.4200000000000E+00 -9.4200385011754E-03  3.8137655346019E-01
144  1.4300000000000E+00 -7.1411207954422E-03  3.4517003597046E-01
145  1.4400000000000E+00 -5.2798594999125E-03  3.1007035292044E-01
146  1.4500000000000E+00 -3.7895918238017E-03  2.7623488428771E-01
147  1.4600000000000E+00 -2.6239551356183E-03  2.4381604081144E-01
148  1.4700000000000E+00 -1.7375029608547E-03  2.1295981448126E-01
149  1.4800000000000E+00 -1.0863079872695E-03  1.8380434502666E-01
150  1.4900000000000E+00 -6.2854534802565E-04  1.5647852064264E-01
151  1.5000000000000E+00 -3.2504785941142E-04  1.3110064238195E-01
152  1.5100000000000E+00 -1.3984486142367E-04  1.0777705425972E-01
153  1.5200000000000E+00 -4.0592467238435E-05  8.6601292731336E-02
154  1.5300000000000E+00  3.0899575874904E-07  6.7648672041033E-02
155  1.5400000000000E+00  3.5371404472646E-06  5.0962180085815E-02
156  1.5500000000000E+00 -1.0625452857671E-05  3.6596876642248E-02
157  1.5600000000000E+00 -2.6502484193055E-05  2.4596219486067E-02
158  1.5700000000000E+00 -3.4428422785975E-05  1.4983481602338E-02
159  1.5800000000000E+00 -3.0749961204979E-05  7.7635955091584E-03
160  1.5900000000000E+00 -1.7567588194505E-05  2.9036819676418E-03
161  1.6000000000000E+00 -3.8697907095159E-06  4.4426268404464E-04
162  1.6100000000000E+00  5.3177755055078E-07 -5.0561630004505E-05
163  1.6200000000000E+00 -1.4421266049591E-07  1.5413051977974E-05
164  1.63  0. -0.
165  1.64 -0. -0.
166  1.65  0.  0.
167  1.66  0.  0.
168  1.67  0.  0.
169  1.68  0.  0.
170  1.69  0.  0.
171  1.70  0.  0.
172  1.71  0.  0.
173  1.72  0.  0.
174  1.73  0.  0.
175  1.74  0.  0.
176  1.75  0.  0.
177  1.76  0.  0.
178  1.77  0.  0.
179  1.78  0.  0.
180  1.79  0.  0.
181  1.80  0.  0.
182  1.81  0.  0.
183  1.82  0.  0.
184  1.83  0.  0.
185  1.84  0.  0.
186  1.85  0.  0.
187  1.86  0.  0.
188  1.87  0.  0.
189  1.88  0.  0.
190  1.89  0.  0.
191  1.90  0.  0.
192  1.91  0.  0.
193  1.92  0.  0.
194  1.93  0.  0.
195  1.94  0.  0.
196  1.95  0.  0.
197  1.96  0.  0.
198  1.97  0.  0.
199  1.98  0.  0.
200  1.99  0.  0.
201  2.00  0.  0.
202  2.01  0.  0.
203  2.02  0.  0.
204  2.03  0.  0.
205  2.04  0.  0.
206  2.05  0.  0.
207  2.06  0.  0.
208  2.07  0.  0.
209  2.08  0.  0.
210  2.09  0.  0.
211  2.10  0.  0.
212  2.11  0.  0.
213  2.12  0.  0.
214  2.13  0.  0.
215  2.14  0.  0.
216  2.15  0.  0.
217  2.16  0.  0.
218  2.17  0.  0.
219  2.18  0.  0.
220  2.19  0.  0.
221  2.20  0.  0.
222  2.21  0.  0.
223  2.22  0.  0.
224  2.23  0.  0.
225  2.24  0.  0.
226  2.25  0.  0.
227  2.26  0.  0.
228  2.27  0.  0.
229  2.28  0.  0.
230  2.29  0.  0.
231  2.30  0.  0.
232  2.31  0.  0.
233  2.32  0.  0.
234  2.33  0.  0.
235  2.34  0.  0.
236  2.35  0.  0.
237  2.36  0.  0.
238  2.37  0.  0.
239  2.38  0.  0.
240  2.39  0.  0.
241  2.40  0.  0.
242  2.41  0.  0.
243  2.42  0.  0.
244  2.43  0.  0.
245  2.44  0.  0.
246  2.45  0.  0.
247  2.46  0.  0.
248  2.47  0.  0.
249  2.48  0.  0.
250  2.49  0.  0.
251  2.50  0.  0.
252  2.51  0.  0.
253  2.52  0.  0.
254  2.53  0.  0.
255  2.54  0.  0.
256  2.55  0.  0.
257  2.56  0.  0.
258  2.57  0.  0.
259  2.58  0.  0.
260  2.59  0.  0.
261  2.60  0.  0.
262  2.61  0.  0.
263  2.62  0.  0.
264  2.63  0.  0.
265  2.64  0.  0.
266  2.65  0.  0.
267  2.66  0.  0.
268  2.67  0.  0.
269  2.68  0.  0.
270  2.69  0.  0.
271  2.70  0.  0.
272  2.71  0.  0.
273  2.72  0.  0.
274  2.73  0.  0.
275  2.74  0.  0.
276  2.75  0.  0.
277  2.76  0.  0.
278  2.77  0.  0.
279  2.78  0.  0.
280  2.79  0.  0.
281  2.80  0.  0.
282  2.81  0.  0.
283  2.82  0.  0.
284  2.83  0.  0.
285  2.84  0.  0.
286  2.85  0.  0.
287  2.86  0.  0.
288  2.87  0.  0.
289  2.88  0.  0.
290  2.89  0.  0.
291  2.90  0.  0.
292  2.91  0.  0.
293  2.92  0.  0.
294  2.93  0.  0.
295  2.94  0.  0.
296  2.95  0.  0.
297  2.96  0.  0.
298  2.97  0.  0.
299  2.98  0.  0.
300  2.99  0.  0.
301  3.00  0.  0.
302  3.01  0.  0.
303  3.02  0.  0.
304  3.03  0.  0.
305  3.04  0.  0.
306  3.05  0.  0.
307  3.06  0.  0.
308  3.07  0.  0.
309  3.08  0.  0.
310  3.09  0.  0.
311  3.10  0.  0.
312  3.11  0.  0.
313  3.12  0.  0.
314  3.13  0.  0.
315  3.14  0.  0.
316  3.15  0.  0.
317  3.16  0.  0.
318  3.17  0.  0.
319  3.18  0.  0.
320  3.19  0.  0.
321  3.20  0.  0.
322  3.21  0.  0.
323  3.22  0.  0.
324  3.23  0.  0.
325  3.24  0.  0.
326  3.25  0.  0.
327  3.26  0.  0.
328  3.27  0.  0.
329  3.28  0.  0.
330  3.29  0.  0.
331  3.30  0.  0.
332  3.31  0.  0.
333  3.32  0.  0.
334  3.33  0.  0.
335  3.34  0.  0.
336  3.35  0.  0.
337  3.36  0.  0.
338  3.37  0.  0.
339  3.38  0.  0.
340  3.39  0.  0.
341  3.40  0.  0.
342  3.41  0.  0.
343  3.42  0.  0.
344  3.43  0.  0.
345  3.44  0.  0.
346  3.45  0.  0.
347  3.46  0.  0.
348  3.47  0.  0.
349  3.48  0.  0.
350  3.49  0.  0.
351  3.50  0.  0.
352  3.51  0.  0.
353  3.52  0.  0.
354  3.53  0.  0.
355  3.54  0.  0.
356  3.55  0.  0.
357  3.56  0.  0.
358  3.57  0.  0.
359  3.58  0.  0.
360  3.59  0.  0.
361  3.60  0.  0.
362  3.61  0.  0.
363  3.62  0.  0.
364  3.63  0.  0.
365  3.64  0.  0.
366  3.65  0.  0.
367  3.66  0.  0.
368  3.67  0.  0.
369  3.68  0.  0.
370  3.69  0.  0.
371  3.70  0.  0.
372  3.71  0.  0.
373  3.72  0.  0.
374  3.73  0.  0.
375  3.74  0.  0.
376  3.75  0.  0.
377  3.76  0.  0.
378  3.77  0.  0.
379  3.78  0.  0.
380  3.79  0.  0.
381  3.80  0.  0.
382  3.81  0.  0.
383  3.82  0.  0.
384  3.83  0.  0.
385  3.84  0.  0.
386  3.85  0.  0.
387  3.86  0.  0.
388  3.87  0.  0.
389  3.88  0.  0.
390  3.89  0.  0.
391  3.90  0.  0.
392  3.91  0.  0.
393  3.92  0.  0.
394  3.93  0.  0.
395  3.94  0.  0.
396  3.95  0.  0.
397  3.96  0.  0.
398  3.97  0.  0.
399  3.98  0.  0.
400  3.99  0.  0.
401  4.00  0.  0.
402  4.01  0.  0.
403  4.02  0.  0.
404  4.03  0.  0.
405  4.04  0.  0.
406  4.05  0.  0.
407  4.06  0.  0.
408  4.07  0.  0.
409  4.08  0.  0.
410  4.09  0.  0.
411  4.10  0.  0.
412  4.11  0.  0.
413  4.12  0.  0.
414  4.13  0.  0.
415  4.14  0.  0.
416  4.15  0.  0.
417  4.16  0.  0.
418  4.17  0.  0.
419  4.18  0.  0.
420  4.19  0.  0.
421  4.20  0.  0.
422  4.21  0.  0.
423  4.22  0.  0.
424  4.23  0.  0.
425  4.24  0.  0.
426  4.25  0.  0.
427  4.26  0.  0.
428  4.27  0.  0.
429  4.28  0.  0.
430  4.29  0.  0.
431  4.30  0.  0.
432  4.31  0.  0.
433  4.32  0.  0.
434  4.33  0.  0.
435  4.34  0.  0.
436  4.35  0.  0.
437  4.36  0.  0.
438  4.37  0.  0.
439  4.38  0.  0.
440  4.39  0.  0.
441  4.40  0.  0.
442  4.41  0.  0.
443  4.42  0.  0.
444  4.43  0.  0.
445  4.44  0.  0.
446  4.45  0.  0.
447  4.46  0.  0.
448  4.47  0.  0.
449  4.48  0.  0.
450  4.49  0.  0.
451  4.50  0.  0.
452  4.51  0.  0.
453  4.52  0.  0.
454  4.53  0.  0.
455  4.54  0.  0.
456  4.55  0.  0.
457  4.56  0.  0.
458  4.57  0.  0.
459  4.58  0.  0.
460  4.59  0.  0.
461  4.60  0.  0.
462  4.61  0.  0.
463  4.62  0.  0.
464  4.63  0.  0.
465  4.64  0.  0.
466  4.65  0.  0.
467  4.66  0.  0.
468  4.67  0.  0.
469  4.68  0.  0.
470  4.69  0.  0.
471  4.70  0.  0.
472  4.71  0.  0.
473  4.72  0.  0.
474  4.73  0.  0.
475  4.74  0.  0.
476  4.75  0.  0.
477  4.76  0.  0.
478  4.77  0.  0.
479  4.78  0.  0.
480  4.79  0.  0.
481  4.80  0.  0.
482  4.81  0.  0.
483  4.82  0.  0.
484  4.83  0.  0.
485  4.84  0.  0.
486  4.85  0.  0.
487  4.86  0.  0.
488  4.87  0.  0.
489  4.88  0.  0.
490  4.89  0.  0.
491  4.90  0.  0.
492  4.91  0.  0.
493  4.92  0.  0.
494  4.93  0.  0.
495  4.94  0.  0.
496  4.95  0.  0.
497  4.96  0.  0.
498  4.97  0.  0.
499  4.98  0.  0.
500  4.99  0.  0.
501  5.00  0.  0.
502  5.01  0.  0.
503  5.02  0.  0.
504  5.03  0.  0.
505  5.04  0.  0.
506  5.05  0.  0.
507  5.06  0.  0.
508  5.07  0.  0.
509  5.08  0.  0.
510  5.09  0.  0.
511  5.10  0.  0.
512  5.11  0.  0.
513  5.12  0.  0.
514  5.13  0.  0.
515  5.14  0.  0.
516  5.15  0.  0.
517  5.16  0.  0.
518  5.17  0.  0.
519  5.18  0.  0.
520  5.19  0.  0.
521  5.20  0.  0.
522  5.21  0.  0.
523  5.22  0.  0.
524  5.23  0.  0.
525  5.24  0.  0.
526  5.25  0.  0.
527  5.26  0.  0.
528  5.27  0.  0.
529  5.28  0.  0.
530  5.29  0.  0.
531  5.30  0.  0.
532  5.31  0.  0.
533  5.32  0.  0.
534  5.33  0.  0.
535  5.34  0.  0.
536  5.35  0.  0.
537  5.36  0.  0.
538  5.37  0.  0.
539  5.38  0.  0.
540  5.39  0.  0.
541  5.40  0.  0.
542  5.41  0.  0.
543  5.42  0.  0.
544  5.43  0.  0.
545  5.44  0.  0.
546  5.45  0.  0.
547  5.46  0.  0.
548  5.47  0.  0.
549  5.48  0.  0.
550  5.49  0.  0.
551  5.50  0.  0.
552  5.51  0.  0.
553  5.52  0.  0.
554  5.53  0.  0.
555  5.54  0.  0.
556  5.55  0.  0.
557  5.56  0.  0.
558  5.57  0.  0.
559  5.58  0.  0.
560  5.59  0.  0.
561  5.60  0.  0.
562  5.61  0.  0.
563  5.62  0.  0.
564  5.63  0.  0.
565  5.64  0.  0.
566  5.65  0.  0.
567  5.66  0.  0.
568  5.67  0.  0.
569  5.68  0.  0.
570  5.69  0.  0.
571  5.70  0.  0.
572  5.71  0.  0.
573  5.72  0.  0.
574  5.73  0.  0.
575  5.74  0.  0.
576  5.75  0.  0.
577  5.76  0.  0.
578  5.77  0.  0.
579  5.78  0.  0.
580  5.79  0.  0.
581  5.80  0.  0.
582  5.81  0.  0.
583  5.82  0.  0.
584  5.83  0.  0.
585  5.84  0.  0.
586  5.85  0.  0.
587  5.86  0.  0.
588  5.87  0.  0.
589  5.88  0.  0.
590  5.89  0.  0.
591  5.90  0.  0.
592  5.91  0.  0.
593  5.92  0.  0.
594  5.93  0.  0.
595  5.94  0.  0.
596  5.95  0.  0.
597  5.96  0.  0.
598  5.97  0.  0.
599  5.98  0.  0.
600  5.99  0.  0.
1                         6.1022058895438E+00 -2.9905312306730E-01
1  0.0000000000000E+00 -1.4941628490028E-10 -9.1814943634083E-09
2  1.0000000000000E-02  1.4528368002876E-03  8.5551790267274E-04
3  2.0000000000000E-02  5.8063343322496E-03  3.4258607020138E-03
4  3.0000000000000E-02  1.3045465228787E-02  7.7221674832062E-03
5  4.0000000000000E-02  2.3145221441884E-02  1.3762248231373E-02
6  5.0000000000000E-02  3.6070670929808E-02  2.1569470139755E-02
7  6.0000000000000E-02  5.1777037691268E-02  3.1171236122180E-02
8  7.0000000000000E-02  7.0209805793402E-02  4.2597092275158E-02
9  8.0000000000000E-02  9.1304848189841E-02  5.5876510216430E-02
10  9.0000000000000E-02  1.1498858124892E-01  7.1036398455711E-02
11  1.0000000000000E-01  1.4117814600570E-01  8.8098404059247E-02
12  1.1000000000000E-01  1.6978161721097E-01  1.0707607169776E-01
13  1.2000000000000E-01  2.0069824127238E-01  1.2797193159657E-01
14  1.3000000000000E-01  2.3381870416484E-01  1.5077459083523E-01
15  1.4000000000000E-01  2.6902543032783E-01  1.7545590380577E-01
16  1.5000000000000E-01  3.0619291346512E-01  2.0196829739639E-01
17  1.6000000000000E-01  3.4518808001785E-01  2.3024232461366E-01
18  1.7000000000000E-01  3.8587068589626E-01  2.6018451692082E-01
19  1.8000000000000E-01  4.2809374682952E-01  2.9167560060786E-01
20  1.9000000000000E-01  4.7170400243114E-01  3.2456913611155E-01
21  2.0000000000000E-01  5.1654241378156E-01  3.5869063148827E-01
22  2.1000000000000E-01  5.6244469400477E-01  3.9383717235355E-01
23  2.2000000000000E-01  6.0924187096713E-01  4.2977760070956E-01
24  2.3000000000000E-01  6.5676088085904E-01  4.6625326437489E-01
25  2.4000000000000E-01  7.0482519104031E-01  5.0297934741803E-01
26  2.5000000000000E-01  7.5325545014406E-01  5.3964678029685E-01
27  2.6000000000000E-01  8.0187016304854E-01  5.7592471655268E-01
28  2.7000000000000E-01  8.5048638794836E-01  6.1146355113254E-01
29  2.8000000000000E-01  8.9892045239271E-01  6.4589844395375E-01
30  2.9000000000000E-01  9.4698868481549E-01  6.7885330141044E-01
31  3.0000000000000E-01  9.9450815776666E-01  7.0994515837524E-01
32  3.1000000000000E-01  1.0412974387723E+00  7.3878889407886E-01
33  3.2000000000000E-01  1.0871773445083E+00  7.6500220724784E-01
34  3.3000000000000E-01  1.1319716937734E+00  7.8821076921621E-01
35  3.4000000000000E-01  1.1755080545977E+00  8.0805346854511E-01
36  3.5000000000000E-01  1.2176184807248E+00  8.2418765710510E-01
37  3.6000000000000E-01  1.2581402326615E+00  8.3629430568393E-01
38  3.7000000000000E-01  1.2969164785034E+00  8.4408297703612E-01
39  3.8000000000000E-01  1.3337969698146E+00  8.4729652591005E-01
40  3.9000000000000E-01  1.3686386879679E+00  8.4571543896213E-01
41  4.0000000000000E-01  1.4013064565363E+00  8.3916173254950E-01
42  4.1000000000000E-01  1.4316735155657E+00  8.2750233310290E-01
43  4.2000000000000E-01  1.4596220538468E+00  8.1065187300794E-01
44  4.3000000000000E-01  1.4850436956429E+00  7.8857484452220E-01
45  4.4000000000000E-01  1.5078399387103E+00  7.6128706505949E-01
46  4.5000000000000E-01  1.5279225408647E+00  7.2885641898250E-01
47  4.6000000000000E-01  1.5452138527954E+00  6.9140285364738E-01
48  4.7000000000000E-01  1.5596470953049E+00  6.4909762060287E-01
49  4.8000000000000E-01  1.5711665796404E+00  6.0216176631516E-01
50  4.9000000000000E-01  1.5797278700877E+00  5.5086389031442E-01
51  5.0000000000000E-01  1.5852978885031E+00  4.9551720197855E-01
52  5.1000000000000E-01  1.5878549609595E+00  4.3647592002977E-01
53  5.2000000000000E-01  1.5873888071745E+00  3.7413107096614E-01
54  5.3000000000000E-01  1.5839004738566E+00  3.0890575384778E-01
55  5.4000000000000E-01  1.5774022135557E+00  2.4124994887842E-01
56  5.5000000000000E-01  1.5679173110154E+00  1.7163495586911E-01
57  5.6000000000000E-01  1.5554798594043E+00  1.0054755576010E-01
58  5.7000000000000E-01  1.5401344891386E+00  2.8483993762295E-02
59  5.8000000000000E-01  1.5219360523001E+00 -4.4056113757297E-02
60  5.9000000000000E-01  1.5009492658920E+00 -1.1657584486758E-01
61  6.0000000000000E-01  1.4772483173678E+00 -1.8858690666300E-01
62  6.1000000000000E-01  1.4509164360040E+00 -2.5961533763712E-01
63  6.2000000000000E-01  1.4220454337732E+00 -3.2920688083015E-01
64  6.3000000000000E-01  1.3907352194044E+00 -3.9693193681887E-01
65  6.4000000000000E-01  1.3570932893029E+00 -4.6239001346586E-01
66  6.5000000000000E-01  1.3212341989328E+00 -5.2521359883082E-01
67  6.6000000000000E-01  1.2832790181572E+00 -5.8507139459388E-01
68  6.7000000000000E-01  1.2433547738795E+00 -6.4167085955575E-01
69  6.8000000000000E-01  1.2015938831446E+00 -6.9476002602979E-01
70  6.9000000000000E-01  1.1581335796452E+00 -7.4412856598118E-01
71  7.0000000000000E-01  1.1131153363362E+00 -7.8960809833129E-01
72  7.1000000000000E-01  1.0666842866101E+00 -8.3107174364863E-01
73  7.2000000000000E-01  1.0189886462164E+00 -8.6843294720882E-01
74  7.3000000000000E-01  9.7017913784218E-01 -9.0164360583151E-01
75  7.4000000000000E-01  9.2040842000282E-01 -9.3069154770946E-01
76  7.5000000000000E-01  8.6983052163665E-01 -9.5559742735466E-01
77  7.6000000000000E-01  8.1860028355698E-01 -9.7641110954088E-01
78  7.7000000000000E-01  7.6687280769532E-01 -9.9320762647357E-01
79  7.8000000000000E-01  7.1480291487753E-01 -1.0060828011536E+00
80  7.9000000000000E-01  6.6254461171314E-01 -1.0151486368320E+00
81  8.0000000000000E-01  6.1025056705097E-01 -1.0205285774212E+00
82  8.1000000000000E-01  5.5807159836443E-01 -1.0223527466181E+00
83  8.2000000000000E-01  5.0615616837889E-01 -1.0207532742277E+00
84  8.3000000000000E-01  4.5464989224245E-01 -1.0158598167116E+00
85  8.4000000000000E-01  4.0369505556926E-01 -1.0077953753293E+00
86  8.5000000000000E-01  3.5343014375077E-01 -9.9667250944639E-01
87  8.6000000000000E-01  3.0398938303206E-01 -9.8259003472630E-01
88  8.7000000000000E-01  2.5550229398439E-01 -9.6563028615567E-01
89  8.8000000000000E-01  2.0809325816758E-01 -9.4585701432469E-01
90  8.9000000000000E-01  1.6188109896097E-01 -9.2331397031963E-01
91  9.0000000000000E-01  1.1697867774463E-01 -8.9802422021186E-01
92  9.1000000000000E-01  7.3492506825977E-02 -8.6999021472286E-01
93  9.2000000000000E-01  3.1522380724646E-02 -8.3919462349523E-01
94  9.3000000000000E-01 -8.8389723567953E-03 -8.0560192681957E-01
95  9.4000000000000E-01 -4.7506216844957E-02 -7.6916074097858E-01
96  9.5000000000000E-01 -8.4401711672982E-02 -7.2980683690166E-01
97  9.6000000000000E-01 -1.1945578534485E-01 -6.8746679590732E-01
98  9.7000000000000E-01 -1.5260698167974E-01 -6.4206223127073E-01
99  9.8000000000000E-01 -1.8380227363969E-01 -5.9351449049889E-01
100  9.9000000000000E-01 -2.1299724259877E-01 -5.4174974082581E-01
101  1.0000000000000E+00 -2.4015622041616E-01 -4.8670432980880E-01
102  1.0100000000000E+00 -2.6525239173468E-01 -4.2833030427086E-01
103  1.0200000000000E+00 -2.8826785404159E-01 -3.6660096438403E-01
104  1.0300000000000E+00 -3.0919363320392E-01 -3.0151632558720E-01
105  1.0400000000000E+00 -3.2802965242595E-01 -2.3310835941136E-01
106  1.0500000000000E+00 -3.4478465287168E-01 -1.6144588520648E-01
107  1.0600000000000E+00 -3.5947606454859E-01 -8.6638988260783E-02
108  1.0700000000000E+00 -3.7212982645851E-01 -8.8428458606465E-03
109  1.0800000000000E+00 -3.8278015548046E-01  7.1739148647139E-02
110  1.0900000000000E+00 -3.9146926395761E-01  1.5485306281707E-01
111  1.1000000000000E+00 -3.9824702650425E-01  2.4019298906481E-01
112  1.1100000000000E+00 -4.0317059712628E-01  3.2740056651490E-01
113  1.1200000000000E+00 -4.0630397834767E-01  4.1606551486349E-01
114  1.1300000000000E+00 -4.0771754464878E-01  5.0572721615074E-01
115  1.1400000000000E+00 -4.0748752313865E-01  5.9587736101261E-01
116  1.1500000000000E+00 -4.0569543499317E-01  6.8596365588038E-01
117  1.1600000000000E+00 -4.0242750178208E-01  7.7539456710731E-01
118  1.1700000000000E+00 -3.9777402137083E-01  8.6354505747566E-01
119  1.1800000000000E+00 -3.9182871860562E-01  9.4976325042591E-01
120  1.1900000000000E+00 -3.8468807646333E-01  1.0333779379139E+00
121  1.2000000000000E+00 -3.7645065375915E-01  1.1137068296222E+00
122  1.2100000000000E+00 -3.6721639584882E-01  1.1900654244136E+00
123  1.2200000000000E+00 -3.5708594502608E-01  1.2617763700682E+00
124  1.2300000000000E+00 -3.4615995749577E-01  1.3281791645200E+00
125  1.2400000000000E+00 -3.3453843389127E-01  1.3886400414678E+00
126  1.2500000000000E+00 -3.2232007029691E-01  1.4425618755443E+00
127  1.2600000000000E+00 -3.0960163662891E-01  1.4893939373381E+00
128  1.2700000000000E+00 -2.9647738902039E-01  1.5286413267054E+00
129  1.2800000000000E+00 -2.8303852254873E-01  1.5598739139640E+00
130  1.2900000000000E+00 -2.6937267023458E-01  1.5827346228548E+00
131  1.3000000000000E+00 -2.5556345374029E-01  1.5969468964928E+00
132  1.3100000000000E+00 -2.4169009060448E-01  1.6023211978214E+00
133  1.3200000000000E+00 -2.2782706217100E-01  1.5987604092961E+00
134  1.3300000000000E+00 -2.1404384562154E-01  1.5862640123343E+00
135  1.3400000000000E+00 -2.0040471270772E-01  1.5649309452362E+00
136  1.3500000000000E+00 -1.8696859690639E-01  1.5349610587069E+00
137  1.3600000000000E+00 -1.7378902981338E-01  1.4966551101907E+00
138  1.3700000000000E+00 -1.6091414665069E-01  1.4504132618245E+00
139  1.3800000000000E+00 -1.4838675981260E-01  1.3967320712866E+00
140  1.3900000000000E+00 -1.3624449841865E-01  1.3361999901157E+00
141  1.4000000000000E+00 -1.2452001090644E-01  1.2694914093242E+00
142  1.4100000000000E+00 -1.1324122678769E-01  1.1973593172085E+00
143  1.4200000000000E+00 -1.0243167282633E-01  1.1206266585935E+00
144  1.4300000000000E+00 -9.2110838092416E-02  1.0401765078775E+00
145  1.4400000000000E+00 -8.2294581607354E-02  9.5694118992636E-01
146  1.4500000000000E+00 -7.2995575646917E-02  8.7189050241671E-01
147  1.4600000000000E+00 -6.4223777210222E-02  7.8601921056265E-01
148  1.4700000000000E+00 -5.5986919710347E-02  7.0033399980098E-01
149  1.4800000000000E+00 -4.8291016602469E-02  6.1584008370887E-01
150  1.4900000000000E+00 -4.1140868443839E-02  5.3352767299282E-01
151  1.5000000000000E+00 -3.4540561757728E-02  4.5435855446417E-01
152  1.5100000000000E+00 -2.8493982354342E-02  3.7925260795827E-01
153  1.5200000000000E+00 -2.3005189132612E-02  3.0907622549568E-01
154  1.5300000000000E+00 -1.8080018007392E-02  2.4461596655084E-01
155  1.5400000000000E+00 -1.3729929532498E-02  1.8652068617766E-01
156  1.5500000000000E+00 -9.9602264061092E-03  1.3544390548713E-01
157  1.5600000000000E+00 -6.7766795924186E-03  9.1962905409488E-02
158  1.5700000000000E+00 -4.1879228881857E-03  5.6544101798630E-02
159  1.5800000000000E+00 -2.2059669632882E-03  2.9544677527309E-02
160  1.5900000000000E+00 -8.4032050746125E-04  1.1132619677572E-02
161  1.6000000000000E+00 -1.3132672781009E-04  1.7150470244142E-03
162  1.6100000000000E+00  1.5164658324385E-05 -1.9616703737683E-04
163  1.6200000000000E+00 -4.5822161606650E-06  5.9649811015534E-05
164  1.63  0. -0.
165  1.64 -0.  0.
166  1.65  0.  0.