Mc    ONCVPSP-4.0.1  r_core=   1.60600   1.60600   1.60600   1.60600
115.0000     23.0000      220308    zatom,zion,pspd
8      11   3     4   600     0    pspcod,pspxc,lmax,lloc,mmax,r2well
5.99000000  5.00000000  0.00000000    rchrg fchrg qchrg
2     4     3     2    nproj
3     1           extension_switch
4     4     2    nprojso
0                         8.8822646123540E+00 -5.2945426582224E-01
1  0.0000000000000E+00  1.3531387121901E-10  6.4659307075221E-10
2  1.0000000000000E-02  7.8219050908206E-02  1.3179523242909E-02
3  2.0000000000000E-02  1.5625680949219E-01  2.6363170141875E-02
4  3.0000000000000E-02  2.3393238282224E-01  3.9554632169727E-02
5  4.0000000000000E-02  3.1106567756349E-01  5.2756745960633E-02
6  5.0000000000000E-02  3.8747780175252E-01  6.5971089541722E-02
7  6.0000000000000E-02  4.6299146885055E-01  7.9197606476704E-02
8  7.0000000000000E-02  5.3743140466971E-01  9.2434266451874E-02
9  8.0000000000000E-02  6.1062475763379E-01  1.0567677018827E-01
10  9.0000000000000E-02  6.8240151267009E-01  1.1891830577570E-01
11  1.0000000000000E-01  7.5259490883845E-01  1.3214936260808E-01
12  1.1000000000000E-01  8.2104186058952E-01  1.4535760806966E-01
13  1.2000000000000E-01  8.8758338231236E-01  1.5852783099652E-01
14  1.3000000000000E-01  9.5206501558358E-01  1.7164195473399E-01
15  1.4000000000000E-01  1.0143372582735E+00  1.8467912135060E-01
16  1.5000000000000E-01  1.0742559944015E+00  1.9761584727189E-01
17  1.6000000000000E-01  1.1316829233703E+00  2.1042624928577E-01
18  1.7000000000000E-01  1.1864859869488E+00  2.2308233856668E-01
19  1.8000000000000E-01  1.2385397921267E+00  2.3555437909041E-01
20  1.9000000000000E-01  1.2877260277259E+00  2.4781130558685E-01
21  2.0000000000000E-01  1.3339338724410E+00  2.5982119502484E-01
22  2.1000000000000E-01  1.3770603917876E+00  2.7155178456146E-01
23  2.2000000000000E-01  1.4170109212729E+00  2.8297102793546E-01
24  2.3000000000000E-01  1.4536994329713E+00  2.9404768145832E-01
25  2.4000000000000E-01  1.4870488825864E+00  3.0475191007069E-01
26  2.5000000000000E-01  1.5169915340236E+00  3.1505590339924E-01
27  2.6000000000000E-01  1.5434692584737E+00  3.2493449137893E-01
28  2.7000000000000E-01  1.5664338050285E+00  3.3436574880642E-01
29  2.8000000000000E-01  1.5858470399113E+00  3.4333157816534E-01
30  2.9000000000000E-01  1.6016811515101E+00  3.5181826021560E-01
31  3.0000000000000E-01  1.6139188185479E+00  3.5981696216661E-01
32  3.1000000000000E-01  1.6225533389115E+00  3.6732419375188E-01
33  3.2000000000000E-01  1.6275887168884E+00  3.7434220218615E-01
34  3.3000000000000E-01  1.6290397068246E+00  3.8087929780404E-01
35  3.4000000000000E-01  1.6269318115152E+00  3.8695010314001E-01
36  3.5000000000000E-01  1.6213012339691E+00  3.9257571929925E-01
37  3.6000000000000E-01  1.6121947815442E+00  3.9778380467021E-01
38  3.7000000000000E-01  1.5996697218293E+00  4.0260856232392E-01
39  3.8000000000000E-01  1.5837935900433E+00  4.0709063381300E-01
40  3.9000000000000E-01  1.5646439481322E+00  4.1127689850222E-01
41  4.0000000000000E-01  1.5423080961599E+00  4.1522017901049E-01
42  4.1000000000000E-01  1.5168827370056E+00  4.1897885479874E-01
43  4.2000000000000E-01  1.4884735957939E+00  4.2261638737448E-01
44  4.3000000000000E-01  1.4571949958901E+00  4.2620076198073E-01
45  4.4000000000000E-01  1.4231693936792E+00  4.2980385197000E-01
46  4.5000000000000E-01  1.3865268747194E+00  4.3350071331272E-01
47  4.6000000000000E-01  1.3474046142033E+00  4.3736881783235E-01
48  4.7000000000000E-01  1.3059463049753E+00  4.4148723477839E-01
49  4.8000000000000E-01  1.2623015566348E+00  4.4593577122611E-01
50  4.9000000000000E-01  1.2166252694974E+00  4.5079408251244E-01
51  5.0000000000000E-01  1.1690769873894E+00  4.5614076447119E-01
52  5.1000000000000E-01  1.1198202334094E+00  4.6205243960415E-01
53  5.2000000000000E-01  1.0690218329055E+00  4.6860284951418E-01
54  5.3000000000000E-01  1.0168512279845E+00  4.7586196592645E-01
55  5.4000000000000E-01  9.6347978788761E-01  4.8389513243315E-01
56  5.5000000000000E-01  9.0908011954343E-01  4.9276224871919E-01
57  5.6000000000000E-01  8.5382538253456E-01  5.0251700846501E-01
58  5.7000000000000E-01  7.9788861259669E-01  5.1320620138697E-01
59  5.8000000000000E-01  7.4144205760967E-01  5.2486908897652E-01
60  5.9000000000000E-01  6.8465652983941E-01  5.3753686244988E-01
61  6.0000000000000E-01  6.2770077795376E-01  5.5123219023766E-01
62  6.1000000000000E-01  5.7074088206600E-01  5.6596886104559E-01
63  6.2000000000000E-01  5.1393967476244E-01  5.8175152712543E-01
64  6.3000000000000E-01  4.5745619074980E-01  5.9857555092963E-01
65  6.4000000000000E-01  4.0144514741823E-01  6.1642695680959E-01
66  6.5000000000000E-01  3.4605645826278E-01  6.3528248787776E-01
67  6.6000000000000E-01  2.9143478074550E-01  6.5510976661438E-01
68  6.7000000000000E-01  2.3771909981609E-01  6.7586755628507E-01
69  6.8000000000000E-01  1.8504234794875E-01  6.9750611876960E-01
70  6.9000000000000E-01  1.3353106219936E-01  7.1996766300953E-01
71  7.0000000000000E-01  8.3305078447911E-02  7.4318687698565E-01
72  7.1000000000000E-01  3.4477262668531E-02  7.6709153495570E-01
73  7.2000000000000E-01 -1.2846721230239E-02  7.9160317063932E-01
74  7.3000000000000E-01 -5.8568607726052E-02  8.1663780614673E-01
75  7.4000000000000E-01 -1.0259769114006E-01  8.4210672572518E-01
76  7.5000000000000E-01 -1.4485095341867E-01  8.6791728285512E-01
77  7.6000000000000E-01 -1.8525315960530E-01  8.9397372887441E-01
78  7.7000000000000E-01 -2.2373692250946E-01  9.2017805115089E-01
79  7.8000000000000E-01 -2.6024273818498E-01  9.4643080886204E-01
80  7.9000000000000E-01 -2.9471899389735E-01  9.7263195467660E-01
81  8.0000000000000E-01 -3.2712195029087E-01  9.9868163106109E-01
82  8.1000000000000E-01 -3.5741569946235E-01  1.0244809305484E+00
83  8.2000000000000E-01 -3.8557210061024E-01  1.0499326100942E+00
84  8.3000000000000E-01 -4.1157069485922E-01  1.0749417505974E+00
85  8.4000000000000E-01 -4.3539860076356E-01  1.0994163537571E+00
86  8.5000000000000E-01 -4.5705039187093E-01  1.1232678696612E+00
87  8.6000000000000E-01 -4.7652795758695E-01  1.1464116498278E+00
88  8.7000000000000E-01 -4.9384034842261E-01  1.1687673218355E+00
89  8.8000000000000E-01 -5.0900360653752E-01  1.1902590831431E+00
90  8.9000000000000E-01 -5.2204058231615E-01  1.2108159132055E+00
91  9.0000000000000E-01 -5.3298073753715E-01  1.2303717044976E+00
92  9.1000000000000E-01 -5.4185993552161E-01  1.2488653145507E+00
93  9.2000000000000E-01 -5.4872021848143E-01  1.2662405425450E+00
94  9.3000000000000E-01 -5.5360957213627E-01  1.2824460353762E+00
95  9.4000000000000E-01 -5.5658167753366E-01  1.2974351293880E+00
96  9.5000000000000E-01 -5.5769564989407E-01  1.3111656351200E+00
97  9.6000000000000E-01 -5.5701576421596E-01  1.3235995734347E+00
98  9.7000000000000E-01 -5.5461116731773E-01  1.3347028722493E+00
99  9.8000000000000E-01 -5.5055557596660E-01  1.3444450337758E+00
100  9.9000000000000E-01 -5.4492696075123E-01  1.3527987826737E+00
101  1.0000000000000E+00 -5.3780721539593E-01  1.3597397058139E+00
102  1.0100000000000E+00 -5.2928181129092E-01  1.3652458944463E+00
103  1.0200000000000E+00 -5.1943943712425E-01  1.3692975994509E+00
104  1.0300000000000E+00 -5.0837162364642E-01  1.3718769100313E+00
105  1.0400000000000E+00 -4.9617235377668E-01  1.3729674656842E+00
106  1.0500000000000E+00 -4.8293765846700E-01  1.3725542105642E+00
107  1.0600000000000E+00 -4.6876519897455E-01  1.3706231984603E+00
108  1.0700000000000E+00 -4.5375383645025E-01  1.3671614555276E+00
109  1.0800000000000E+00 -4.3800319002669E-01  1.3621569067031E+00
110  1.0900000000000E+00 -4.2161318487814E-01  1.3555983703742E+00
111  1.1000000000000E+00 -4.0468359202227E-01  1.3474756244155E+00
112  1.1100000000000E+00 -3.8731356193338E-01  1.3377795451642E+00
113  1.1200000000000E+00 -3.6960115433285E-01  1.3265023193052E+00
114  1.1300000000000E+00 -3.5164286680865E-01  1.3136377270145E+00
115  1.1400000000000E+00 -3.3353316518656E-01  1.2991814930817E+00
116  1.1500000000000E+00 -3.1536401882317E-01  1.2831317011403E+00
117  1.1600000000000E+00 -2.9722444421102E-01  1.2654892645977E+00
118  1.1700000000000E+00 -2.7920006047205E-01  1.2462584464116E+00
119  1.1800000000000E+00 -2.6137266046208E-01  1.2254474185252E+00
120  1.1900000000000E+00 -2.4381980131175E-01  1.2030688505821E+00
121  1.2000000000000E+00 -2.2661441828363E-01  1.1791405165124E+00
122  1.2100000000000E+00 -2.0982446582731E-01  1.1536859067385E+00
123  1.2200000000000E+00 -1.9351258966266E-01  1.1267348331047E+00
124  1.2300000000000E+00 -1.7773583361190E-01  1.0983240132111E+00
125  1.2400000000000E+00 -1.6254538473490E-01  1.0684976206351E+00
126  1.2500000000000E+00 -1.4798636009808E-01  1.0373077875607E+00
127  1.2600000000000E+00 -1.3409763822530E-01  1.0048150466152E+00
128  1.2700000000000E+00 -1.2091173794252E-01  9.7108869922631E-01
129  1.2800000000000E+00 -1.0845474693995E-01  9.3620709856283E-01
130  1.2900000000000E+00 -9.6746301935227E-02  9.0025783609787E-01
131  1.3000000000000E+00 -8.5799621840241E-02  8.6333782202028E-01
132  1.3100000000000E+00 -7.5621594812798E-02  8.2555325110105E-01
133  1.3200000000000E+00 -6.6212919518618E-02  7.8701944718719E-01
134  1.3300000000000E+00 -5.7568300349174E-02  7.4786058120861E-01
135  1.3400000000000E+00 -4.9676695743431E-02  7.0820925942134E-01
136  1.3500000000000E+00 -4.2521618149264E-02  6.6820598056090E-01
137  1.3600000000000E+00 -3.6081483549690E-02  6.2799846258716E-01
138  1.3700000000000E+00 -3.0330007871662E-02  5.8774084175719E-01
139  1.3800000000000E+00 -2.5236647005945E-02  5.4759274881025E-01
140  1.3900000000000E+00 -2.0767076595309E-02  5.0771826908894E-01
141  1.4000000000000E+00 -1.6883707213884E-02  4.6828479538087E-01
142  1.4100000000000E+00 -1.3546230063191E-02  4.2946178414284E-01
143  1.4200000000000E+00 -1.0712187861506E-02  3.9141942751987E-01
144  1.4300000000000E+00 -8.3375652096398E-03  3.5432725516605E-01
145  1.4400000000000E+00 -6.3773923822847E-03  3.1835268129464E-01
146  1.4500000000000E+00 -4.7863562295692E-03  2.8365951359034E-01
147  1.4600000000000E+00 -3.5194116793481E-03  2.5040644160108E-01
148  1.4700000000000E+00 -2.5323872130935E-03  2.1874552296347E-01
149  1.4800000000000E+00 -1.7825776492954E-03  1.8882068629300E-01
150  1.4900000000000E+00 -1.2293176095336E-03  1.6076626977838E-01
151  1.5000000000000E+00 -8.3452740270339E-04  1.3470562625909E-01
152  1.5100000000000E+00 -5.6324351207086E-04  1.1074969202364E-01
153  1.5200000000000E+00 -3.8403959085486E-04  8.8996099609835E-02
154  1.5300000000000E+00 -2.7015304275468E-04  6.9523505461811E-02
155  1.5400000000000E+00 -2.0171035801474E-04  5.2376798380663E-02
156  1.5500000000000E+00 -1.5902026516809E-04  3.7613653458850E-02
157  1.5600000000000E+00 -1.2686207076874E-04  2.5279728068977E-02
158  1.5700000000000E+00 -9.5918427863386E-05  1.5399664317634E-02
159  1.5800000000000E+00 -6.2780801957775E-05  7.9789864245028E-03
160  1.5900000000000E+00 -2.9608463098820E-05  2.9840923567924E-03
161  1.6000000000000E+00 -5.7274194331564E-06  4.5653314099604E-04
162  1.6100000000000E+00  7.3823670061399E-07 -5.1955257810580E-05
163  1.6200000000000E+00 -2.0766153418925E-07  1.5838447614683E-05
164  1.63  0.  0.
165  1.64  0.  0.
166  1.65  0.  0.
167  1.66  0.  0.
168  1.67  0.  0.
169  1.68  0.  0.
170  1.69  0.  0.
171  1.70  0.  0.
172  1.71  0.  0.
173  1.72  0.  0.
174  1.73  0.  0.
175  1.74  0.  0.
176  1.75  0.  0.
177  1.76  0.  0.
178  1.77  0.  0.
179  1.78  0.  0.
180  1.79  0.  0.
181  1.80  0.  0.
182  1.81  0.  0.
183  1.82  0.  0.
184  1.83  0.  0.
185  1.84  0.  0.
186  1.85  0.  0.
187  1.86  0.  0.
188  1.87  0.  0.
189  1.88  0.  0.
190  1.89  0.  0.
191  1.90  0.  0.
192  1.91  0.  0.
193  1.92  0.  0.
194  1.93  0.  0.
195  1.94  0.  0.
196  1.95  0.  0.
197  1.96  0.  0.
198  1.97  0.  0.
199  1.98  0.  0.
200  1.99  0.  0.
201  2.00  0.  0.
202  2.01  0.  0.
203  2.02  0.  0.
204  2.03  0.  0.
205  2.04  0.  0.
206  2.05  0.  0.
207  2.06  0.  0.
208  2.07  0.  0.
209  2.08  0.  0.
210  2.09  0.  0.
211  2.10  0.  0.
212  2.11  0.  0.
213  2.12  0.  0.
214  2.13  0.  0.
215  2.14  0.  0.
216  2.15  0.  0.
217  2.16  0.  0.
218  2.17  0.  0.
219  2.18  0.  0.
220  2.19  0.  0.
221  2.20  0.  0.
222  2.21  0.  0.
223  2.22  0.  0.
224  2.23  0.  0.
225  2.24  0.  0.
226  2.25  0.  0.
227  2.26  0.  0.
228  2.27  0.  0.
229  2.28  0.  0.
230  2.29  0.  0.
231  2.30  0.  0.
232  2.31  0.  0.
233  2.32  0.  0.
234  2.33  0.  0.
235  2.34  0.  0.
236  2.35  0.  0.
237  2.36  0.  0.
238  2.37  0.  0.
239  2.38  0.  0.
240  2.39  0.  0.
241  2.40  0.  0.
242  2.41  0.  0.
243  2.42  0.  0.
244  2.43  0.  0.
245  2.44  0.  0.
246  2.45  0.  0.
247  2.46  0.  0.
248  2.47  0.  0.
249  2.48  0.  0.
250  2.49  0.  0.
251  2.50  0.  0.
252  2.51  0.  0.
253  2.52  0.  0.
254  2.53  0.  0.
255  2.54  0.  0.
256  2.55  0.  0.
257  2.56  0.  0.
258  2.57  0.  0.
259  2.58  0.  0.
260  2.59  0.  0.
261  2.60  0.  0.
262  2.61  0.  0.
263  2.62  0.  0.
264  2.63  0.  0.
265  2.64  0.  0.
266  2.65  0.  0.
267  2.66  0.  0.
268  2.67  0.  0.
269  2.68  0.  0.
270  2.69  0.  0.
271  2.70  0.  0.
272  2.71  0.  0.
273  2.72  0.  0.
274  2.73  0.  0.
275  2.74  0.  0.
276  2.75  0.  0.
277  2.76  0.  0.
278  2.77  0.  0.
279  2.78  0.  0.
280  2.79  0.  0.
281  2.80  0.  0.
282  2.81  0.  0.
283  2.82  0.  0.
284  2.83  0.  0.
285  2.84  0.  0.
286  2.85  0.  0.
287  2.86  0.  0.
288  2.87  0.  0.
289  2.88  0.  0.
290  2.89  0.  0.
291  2.90  0.  0.
292  2.91  0.  0.
293  2.92  0.  0.
294  2.93  0.  0.
295  2.94  0.  0.
296  2.95  0.  0.
297  2.96  0.  0.
298  2.97  0.  0.
299  2.98  0.  0.
300  2.99  0.  0.
301  3.00  0.  0.
302  3.01  0.  0.
303  3.02  0.  0.
304  3.03  0.  0.
305  3.04  0.  0.
306  3.05  0.  0.
307  3.06  0.  0.
308  3.07  0.  0.
309  3.08  0.  0.
310  3.09  0.  0.
311  3.10  0.  0.
312  3.11  0.  0.
313  3.12  0.  0.
314  3.13  0.  0.
315  3.14  0.  0.
316  3.15  0.  0.
317  3.16  0.  0.
318  3.17  0.  0.
319  3.18  0.  0.
320  3.19  0.  0.
321  3.20  0.  0.
322  3.21  0.  0.
323  3.22  0.  0.
324  3.23  0.  0.
325  3.24  0.  0.
326  3.25  0.  0.
327  3.26  0.  0.
328  3.27  0.  0.
329  3.28  0.  0.
330  3.29  0.  0.
331  3.30  0.  0.
332  3.31  0.  0.
333  3.32  0.  0.
334  3.33  0.  0.
335  3.34  0.  0.
336  3.35  0.  0.
337  3.36  0.  0.
338  3.37  0.  0.
339  3.38  0.  0.
340  3.39  0.  0.
341  3.40  0.  0.
342  3.41  0.  0.
343  3.42  0.  0.
344  3.43  0.  0.
345  3.44  0.  0.
346  3.45  0.  0.
347  3.46  0.  0.
348  3.47  0.  0.
349  3.48  0.  0.
350  3.49  0.  0.
351  3.50  0.  0.
352  3.51  0.  0.
353  3.52  0.  0.
354  3.53  0.  0.
355  3.54  0.  0.
356  3.55  0.  0.
357  3.56  0.  0.
358  3.57  0.  0.
359  3.58  0.  0.
360  3.59  0.  0.
361  3.60  0.  0.
362  3.61  0.  0.
363  3.62  0.  0.
364  3.63  0.  0.
365  3.64  0.  0.
366  3.65  0.  0.
367  3.66  0.  0.
368  3.67  0.  0.
369  3.68  0.  0.
370  3.69  0.  0.
371  3.70  0.  0.
372  3.71  0.  0.
373  3.72  0.  0.
374  3.73  0.  0.
375  3.74  0.  0.
376  3.75  0.  0.
377  3.76  0.  0.
378  3.77  0.  0.
379  3.78  0.  0.
380  3.79  0.  0.
381  3.80  0.  0.
382  3.81  0.  0.
383  3.82  0.  0.
384  3.83  0.  0.
385  3.84  0.  0.
386  3.85  0.  0.
387  3.86  0.  0.
388  3.87  0.  0.
389  3.88  0.  0.
390  3.89  0.  0.
391  3.90  0.  0.
392  3.91  0.  0.
393  3.92  0.  0.
394  3.93  0.  0.
395  3.94  0.  0.
396  3.95  0.  0.
397  3.96  0.  0.
398  3.97  0.  0.
399  3.98  0.  0.
400  3.99  0.  0.
401  4.00  0.  0.
402  4.01  0.  0.
403  4.02  0.  0.
404  4.03  0.  0.
405  4.04  0.  0.
406  4.05  0.  0.
407  4.06  0.  0.
408  4.07  0.  0.
409  4.08  0.  0.
410  4.09  0.  0.
411  4.10  0.  0.
412  4.11  0.  0.
413  4.12  0.  0.
414  4.13  0.  0.
415  4.14  0.  0.
416  4.15  0.  0.
417  4.16  0.  0.
418  4.17  0.  0.
419  4.18  0.  0.
420  4.19  0.  0.
421  4.20  0.  0.
422  4.21  0.  0.
423  4.22  0.  0.
424  4.23  0.  0.
425  4.24  0.  0.
426  4.25  0.  0.
427  4.26  0.  0.
428  4.27  0.  0.
429  4.28  0.  0.
430  4.29  0.  0.
431  4.30  0.  0.
432  4.31  0.  0.
433  4.32  0.  0.
434  4.33  0.  0.
435  4.34  0.  0.
436  4.35  0.  0.
437  4.36  0.  0.
438  4.37  0.  0.
439  4.38  0.  0.
440  4.39  0.  0.
441  4.40  0.  0.
442  4.41  0.  0.
443  4.42  0.  0.
444  4.43  0.  0.
445  4.44  0.  0.
446  4.45  0.  0.
447  4.46  0.  0.
448  4.47  0.  0.
449  4.48  0.  0.
450  4.49  0.  0.
451  4.50  0.  0.
452  4.51  0.  0.
453  4.52  0.  0.
454  4.53  0.  0.
455  4.54  0.  0.
456  4.55  0.  0.
457  4.56  0.  0.
458  4.57  0.  0.
459  4.58  0.  0.
460  4.59  0.  0.
461  4.60  0.  0.
462  4.61  0.  0.
463  4.62  0.  0.
464  4.63  0.  0.
465  4.64  0.  0.
466  4.65  0.  0.
467  4.66  0.  0.
468  4.67  0.  0.
469  4.68  0.  0.
470  4.69  0.  0.
471  4.70  0.  0.
472  4.71  0.  0.
473  4.72  0.  0.
474  4.73  0.  0.
475  4.74  0.  0.
476  4.75  0.  0.
477  4.76  0.  0.
478  4.77  0.  0.
479  4.78  0.  0.
480  4.79  0.  0.
481  4.80  0.  0.
482  4.81  0.  0.
483  4.82  0.  0.
484  4.83  0.  0.
485  4.84  0.  0.
486  4.85  0.  0.
487  4.86  0.  0.
488  4.87  0.  0.
489  4.88  0.  0.
490  4.89  0.  0.
491  4.90  0.  0.
492  4.91  0.  0.
493  4.92  0.  0.
494  4.93  0.  0.
495  4.94  0.  0.
496  4.95  0.  0.
497  4.96  0.  0.
498  4.97  0.  0.
499  4.98  0.  0.
500  4.99  0.  0.
501  5.00  0.  0.
502  5.01  0.  0.
503  5.02  0.  0.
504  5.03  0.  0.
505  5.04  0.  0.
506  5.05  0.  0.
507  5.06  0.  0.
508  5.07  0.  0.
509  5.08  0.  0.
510  5.09  0.  0.
511  5.10  0.  0.
512  5.11  0.  0.
513  5.12  0.  0.
514  5.13  0.  0.
515  5.14  0.  0.
516  5.15  0.  0.
517  5.16  0.  0.
518  5.17  0.  0.
519  5.18  0.  0.
520  5.19  0.  0.
521  5.20  0.  0.
522  5.21  0.  0.
523  5.22  0.  0.
524  5.23  0.  0.
525  5.24  0.  0.
526  5.25  0.  0.
527  5.26  0.  0.
528  5.27  0.  0.
529  5.28  0.  0.
530  5.29  0.  0.
531  5.30  0.  0.
532  5.31  0.  0.
533  5.32  0.  0.
534  5.33  0.  0.
535  5.34  0.  0.
536  5.35  0.  0.
537  5.36  0.  0.
538  5.37  0.  0.
539  5.38  0.  0.
540  5.39  0.  0.
541  5.40  0.  0.
542  5.41  0.  0.
543  5.42  0.  0.
544  5.43  0.  0.
545  5.44  0.  0.
546  5.45  0.  0.
547  5.46  0.  0.
548  5.47  0.  0.
549  5.48  0.  0.
550  5.49  0.  0.
551  5.50  0.  0.
552  5.51  0.  0.
553  5.52  0.  0.
554  5.53  0.  0.
555  5.54  0.  0.
556  5.55  0.  0.
557  5.56  0.  0.
558  5.57  0.  0.
559  5.58  0.  0.
560  5.59  0.  0.
561  5.60  0.  0.
562  5.61  0.  0.
563  5.62  0.  0.
564  5.63  0.  0.
565  5.64  0.  0.
566  5.65  0.  0.
567  5.66  0.  0.
568  5.67  0.  0.
569  5.68  0.  0.
570  5.69  0.  0.
571  5.70  0.  0.
572  5.71  0.  0.
573  5.72  0.  0.
574  5.73  0.  0.
575  5.74  0.  0.
576  5.75  0.  0.
577  5.76  0.  0.
578  5.77  0.  0.
579  5.78  0.  0.
580  5.79  0.  0.
581  5.80  0.  0.
582  5.81  0.  0.
583  5.82  0.  0.
584  5.83  0.  0.
585  5.84  0.  0.
586  5.85  0.  0.
587  5.86  0.  0.
588  5.87  0.  0.
589  5.88  0.  0.
590  5.89  0.  0.
591  5.90  0.  0.
592  5.91  0.  0.
593  5.92  0.  0.
594  5.93  0.  0.
595  5.94  0.  0.
596  5.95  0.  0.
597  5.96  0.  0.
598  5.97  0.  0.
599  5.98  0.  0.
600  5.99  0.  0.
1                         3.4048385802274E+00 -1.7565236819343E+00 -8.7655025502537E-02  5.3083790261901E-03
1  0.0000000000000E+00  2.4135341364362E-09  7.8481520310314E-09 -3.9455982821235E-09 -1.8349087665959E-08
2  1.0000000000000E-02  1.1091197265342E-03 -1.1942747989915E-03  4.3530415401345E-04 -3.6361018024460E-03
3  2.0000000000000E-02  4.4307785820871E-03 -4.7789596870887E-03  1.7417938794718E-03 -1.4497943747043E-02
4  3.0000000000000E-02  9.9479501750604E-03 -1.0759442345561E-02  3.9211130237604E-03 -3.2446789522476E-02
5  4.0000000000000E-02  1.7632504360338E-02 -1.9144060942319E-02  6.9757105638883E-03 -5.7253581541466E-02
6  5.0000000000000E-02  2.7445573032343E-02 -2.9943158438907E-02  1.0908412713033E-02 -8.8602158232050E-02
7  6.0000000000000E-02  3.9338052400014E-02 -4.3167790793662E-02  1.5721840204120E-02 -1.2609368471029E-01
8  7.0000000000000E-02  5.3251232142669E-02 -5.8828120440420E-02  2.1417686658210E-02 -1.6925222486894E-01
9  8.0000000000000E-02  6.9117539432161E-02 -7.6931534270274E-02  2.7995877891062E-02 -2.1753136456763E-01
10  9.0000000000000E-02  8.6861383631361E-02 -9.7480532385039E-02  3.5453635523209E-02 -2.7032177885851E-01
11  1.0000000000000E-01  1.0640008558547E-01 -1.2047043997719E-01  4.3784471259654E-02 -3.2695962133057E-01
12  1.1000000000000E-01  1.2764487384855E-01 -1.4588699969467E-01  5.2977140627319E-02 -3.8673560096300E-01
13  1.2000000000000E-01  1.5050192896476E-01 -1.7370390566377E-01  6.3014586744226E-02 -4.4890460155773E-01
14  1.3000000000000E-01  1.7487345607666E-01 -2.0388034288425E-01  7.3872905802741E-02 -5.1269569106628E-01
15  1.4000000000000E-01  2.0065876567953E-01 -2.3635859692126E-01  8.5520366347771E-02 -5.7732236304330E-01
16  1.5000000000000E-01  2.2775534229006E-01 -2.7106179866429E-01  9.7916514108234E-02 -6.4199285015995E-01
17  1.6000000000000E-01  2.5605988115207E-01 -3.0789186740051E-01  1.1101139309189E-01 -7.0592035019171E-01
18  1.7000000000000E-01  2.8546927385532E-01 -3.4672771257949E-01  1.2474491189784E-01 -7.6833300816613E-01
19  1.8000000000000E-01  3.1588152488144E-01 -3.8742375047614E-01  1.3904638176472E-01 -8.2848350432528E-01
20  1.9000000000000E-01  3.4719658259190E-01 -4.2980878656521E-01  1.5383424979971E-01 -8.8565810611165E-01
21  2.0000000000000E-01  3.7931707000875E-01 -4.7368530790092E-01  1.6901604718163E-01 -9.3918505335824E-01
22  2.1000000000000E-01  4.1214890287273E-01 -5.1882922227217E-01  1.8448856796753E-01 -9.8844215903536E-01
23  2.2000000000000E-01  4.4560178485472E-01 -5.6499007251941E-01  2.0013828953850E-01 -1.0328635230311E+00
24  2.3000000000000E-01  4.7958957239838E-01 -6.1189174531396E-01  2.1584204078538E-01 -1.0719452732275E+00
25  2.4000000000000E-01  5.1403050443247E-01 -6.5923368408869E-01  2.3146791895563E-01 -1.1052502662646E+00
26  2.5000000000000E-01  5.4884729505693E-01 -7.0669260585848E-01  2.4687645076303E-01 -1.1324116995167E+00
27  2.6000000000000E-01  5.8396709022030E-01 -7.5392471157181E-01  2.6192198800922E-01 -1.1531356055787E+00
28  2.7000000000000E-01  6.1932129230882E-01 -8.0056836959314E-01  2.7645432268747E-01 -1.1672022206014E+00
29  2.8000000000000E-01  6.5484525940216E-01 -8.4624724212442E-01  2.9032050144695E-01 -1.1744662377599E+00
30  2.9000000000000E-01  6.9047788865956E-01 -8.9057381503246E-01  3.0336681449208E-01 -1.1748559765964E+00
31  3.0000000000000E-01  7.2616109582787E-01 -9.3315328284274E-01  3.1544092958132E-01 -1.1683715176067E+00
32  3.1000000000000E-01  7.6183920515894E-01 -9.7358773276731E-01  3.2639413786628E-01 -1.1550818688790E+00
33  3.2000000000000E-01  7.9745826603836E-01 -1.0114805647183E+00  3.3608367496248E-01 -1.1351212475275E+00
34  3.3000000000000E-01  8.3296531432111E-01 -1.0464410784630E+00  3.4437507794326E-01 -1.1086845728006E+00
35  3.4000000000000E-01  8.6830759770285E-01 -1.0780891545271E+00  3.5114453696311E-01 -1.0760222798236E+00
36  3.5000000000000E-01  9.0343178540194E-01 -1.1060599522491E+00  3.5628119899637E-01 -1.0374345727423E+00
37  3.6000000000000E-01  9.3828318296214E-01 -1.1300085466077E+00  3.5968938075889E-01 -9.9326524339796E-01
38  3.7000000000000E-01  9.7280497309715E-01 -1.1496144251356E+00  3.6129064828510E-01 -9.4389518645050E-01
39  3.8000000000000E-01  1.0069375031786E+00 -1.1645857674137E+00  3.6102572186602E-01 -8.8973574400846E-01
40  3.9000000000000E-01  1.0406176392220E+00 -1.1746634323067E+00  3.5885616710539E-01 -8.3122201229819E-01
41  4.0000000000000E-01  1.0737782050609E+00 -1.1796245822127E+00  3.5476583569320E-01 -7.6880623972478E-01
42  4.1000000000000E-01  1.1063475238391E+00 -1.1792858790941E+00  3.4876202308778E-01 -7.0295143994565E-01
43  4.2000000000000E-01  1.1382490770173E+00 -1.1735061938413E+00  3.4087631457948E-01 -6.3412533539998E-01
44  4.3000000000000E-01  1.1694012938260E+00 -1.1621887784723E+00  3.3116509611224E-01 -5.6279473631423E-01
45  4.4000000000000E-01  1.1997174815339E+00 -1.1452828596574E+00  3.1970971167639E-01 -4.8942044773851E-01
46  4.5000000000000E-01  1.2291059040963E+00 -1.1227846219059E+00  3.0661625496321E-01 -4.1445278293702E-01
47  4.6000000000000E-01  1.2574700137481E+00 -1.0947375592868E+00  2.9201498918321E-01 -3.3832774575162E-01
48  4.7000000000000E-01  1.2847088369725E+00 -1.0612321855783E+00  2.7605939538159E-01 -2.6146392770494E-01
49  4.8000000000000E-01  1.3107175130699E+00 -1.0224051040481E+00  2.5892485611847E-01 -1.8426014797026E-01
50  4.9000000000000E-01  1.3353879803293E+00 -9.7843744943996E-01  2.4080698789515E-01 -1.0709384626288E-01
51  5.0000000000000E-01  1.3586098016389E+00 -9.2955272596635E-01  2.2191964207809E-01 -3.0320220597647E-02
52  5.1000000000000E-01  1.3802711183214E+00 -8.7601407596701E-01  2.0249260017731E-01  4.5727915928845E-02
53  5.2000000000000E-01  1.4002597181020E+00 -8.1812102417555E-01  1.8276899505710E-01  1.2073960224746E-01
54  5.3000000000000E-01  1.4184642004825E+00 -7.5620575203990E-01  1.6300249488233E-01  1.9442457923950E-01
55  5.4000000000000E-01  1.4347752204447E+00 -6.9062896508002E-01  1.4345429122893E-01  2.6651159599295E-01
56  5.5000000000000E-01  1.4490867894020E+00 -6.2177542366410E-01  1.2438993671756E-01  3.3674625878229E-01
57  5.6000000000000E-01  1.4612976106957E+00 -5.5004921369450E-01  1.0607608068498E-01  4.0488852003058E-01
58  5.7000000000000E-01  1.4713124257352E+00 -4.7586883838579E-01  8.8777153718469E-02  4.7070991312197E-01
59  5.8000000000000E-01  1.4790433461299E+00 -3.9966221549347E-01  7.2752053292944E-02  5.3399064511481E-01
60  5.9000000000000E-01  1.4844111468858E+00 -3.2186166593492E-01  5.8250883233606E-02  5.9451666296561E-01
61  6.0000000000000E-01  1.4873464959437E+00 -2.4289897969770E-01  4.5511799255323E-02  6.5207680977476E-01
62  6.1000000000000E-01  1.4877910960271E+00 -1.6320064323764E-01  3.4758011410469E-02  7.0646018569594E-01
63  6.2000000000000E-01  1.4856987159390E+00 -8.3183309255710E-02  2.6194991917491E-02  7.5745382358959E-01
64  6.3000000000000E-01  1.4810360900733E+00 -3.2495848587135E-03  2.0007933586103E-02  8.0484078227346E-01
65  6.4000000000000E-01  1.4737836669789E+00  7.6215792263287E-02  1.6359499948889E-02  8.4839875046882E-01
66  6.5000000000000E-01  1.4639361902797E+00  1.5484932775267E-01  1.5387903325025E-02  8.8789924245002E-01
67  6.6000000000000E-01  1.4515030980841E+00  2.3231164168179E-01  1.7205341463089E-02  9.2310745218119E-01
68  6.7000000000000E-01  1.4365087301528E+00  3.0828979396247E-01  2.1896817235650E-02  9.5378281667382E-01
69  6.8000000000000E-01  1.4189923354880E+00  3.8249903211989E-01  2.9519359199153E-02  9.7968032171149E-01
70  6.9000000000000E-01  1.3990078765806E+00  4.5468394107270E-01  4.0101653808996E-02  1.0005525643430E+00
71  7.0000000000000E-01  1.3766236302629E+00  5.2461898660029E-01  5.3644092822253E-02  1.0161525670005E+00
72  7.1000000000000E-01  1.3519215888654E+00  5.9210845642832E-01  7.0119232061497E-02  1.0262373181914E+00
73  7.2000000000000E-01  1.3249966691186E+00  6.5698581508979E-01  8.9472650393327E-02  1.0305719948223E+00
74  7.3000000000000E-01  1.2959557398875E+00  7.1911250067435E-01  1.1162419063047E-01  1.0289348018078E+00
75  7.4000000000000E-01  1.2649164833121E+00  7.7837620302694E-01  1.3646955723375E-01  1.0211223460914E+00
76  7.5000000000000E-01  1.2320061071814E+00  8.3468867366565E-01  1.6388223930309E-01  1.0069554449779E+00
77  7.6000000000000E-01  1.1973599293232E+00  8.8798312743748E-01  1.9371572152486E-01  9.8628525316008E-01
78  7.7000000000000E-01  1.1611198573937E+00  9.3821130451633E-01  2.2580594060577E-01  9.5899957935706E-01
79  7.8000000000000E-01  1.1234327896302E+00  9.8534026858911E-01  2.5997394037040E-01  9.2502925241483E-01
80  7.9000000000000E-01  1.0844489638604E+00  1.0293490228109E+00  2.9602867521761E-01  8.8435438835393E-01
81  8.0000000000000E-01  1.0443202832817E+00  1.0702250292136E+00  3.3376990909753E-01  8.3701040438790E-01
82  8.1000000000000E-01  1.0031986482204E+00  1.1079607196201E+00  3.7299115563389E-01  7.8309362361418E-01
83  8.2000000000000E-01  9.6123432322653E-01  1.1425500866823E+00  4.1348260451699E-01  7.2276631499540E-01
84  8.3000000000000E-01  9.1857436844103E-01  1.1739854423943E+00  4.5503397984555E-01  6.5626101747428E-01
85  8.4000000000000E-01  8.7536116320096E-01  1.2022544283373E+00  4.9743727769580E-01  5.8388400461424E-01
86  8.5000000000000E-01  8.3173104832260E-01  1.2273373570221E+00  5.4048933282247E-01  5.0601775695042E-01
87  8.6000000000000E-01  7.8781311145512E-01  1.2492049570961E+00  5.8399416800158E-01  4.2312232316544E-01
88  8.7000000000000E-01  7.4372813735598E-01  1.2678165869711E+00  6.2776508404966E-01  3.3573546803760E-01
89  8.8000000000000E-01  6.9958774194559E-01  1.2831189717597E+00  6.7162645391328E-01  2.4447152464371E-01
90  8.9000000000000E-01  6.5549370560835E-01  1.2950455074509E+00  7.1541519032002E-01  1.5001889017035E-01
91  9.0000000000000E-01  6.1153751747574E-01  1.3035161642069E+00  7.5898186320519E-01  5.3136128556073E-02
92  9.1000000000000E-01  5.6780013842492E-01  1.3084380077617E+00  8.0219145034674E-01 -4.5353331361728E-02
93  9.2000000000000E-01  5.2435198632583E-01  1.3097063443761E+00  8.4492371222298E-01 -1.4456788696750E-01
94  9.3000000000000E-01  4.8125314274763E-01  1.3072064809297E+00  8.8707318990118E-01 -2.4357579980768E-01
95  9.4000000000000E-01  4.3855377597687E-01  1.3008160777729E+00  9.2854883262535E-01 -3.4140451059665E-01
96  9.5000000000000E-01  3.9629477088355E-01  1.2904080581985E+00  9.6927326954090E-01 -4.3705113459369E-01
97  9.6000000000000E-01  3.5450855198447E-01  1.2758540251039E+00  1.0091817475191E+00 -5.2949401465941E-01
98  9.7000000000000E-01  3.1322008207699E-01  1.2570281228748E+00  1.0482207641788E+00 -6.1770518475296E-01
99  9.8000000000000E-01  2.7244801512887E-01  1.2338112709824E+00  1.0863464317963E+00 -7.0066357402799E-01
100  9.9000000000000E-01  2.3220597878864E-01  1.2060956855181E+00  1.1235226137203E+00 -7.7736876153552E-01