Fl    ONCVPSP-4.0.1  r_core=   1.60082   1.60082   1.60082
    114.0000     22.0000      211120    zatom,zion,pspd
     8      11   2     4   600     0    pspcod,pspxc,lmax,lloc,mmax,r2well
  5.99000000  5.00000000  0.00000000    rchrg fchrg qchrg
     2     2     2     0     0    nproj
     1     1           extension_switch
   0                         9.4066707330692E+00 -4.3418700192698E-01
     1  0.0000000000000E+00  1.3236090001811E-10  8.4733686733784E-10
     2  1.0000000000000E-02  7.6860398404180E-02  1.3963553867207E-02
     3  2.0000000000000E-02  1.5354853367765E-01  2.7926979249868E-02
     4  3.0000000000000E-02  2.2989250631225E-01  4.1889596571157E-02
     5  4.0000000000000E-02  3.0572114493387E-01  5.5849636515621E-02
     6  5.0000000000000E-02  3.8086437255717E-01  6.9803726053804E-02
     7  6.0000000000000E-02  4.5515357536940E-01  8.3746410924754E-02
     8  7.0000000000000E-02  5.2842197472747E-01  9.7669725715203E-02
     9  8.0000000000000E-02  6.0050500292062E-01  1.1156282182691E-01
    10  9.0000000000000E-02  6.7124068308940E-01  1.2541166259111E-01
    11  1.0000000000000E-01  7.4047001350561E-01  1.3919879358845E-01
    12  1.1000000000000E-01  8.0803735620815E-01  1.5290319488420E-01
    13  1.2000000000000E-01  8.7379082976235E-01  1.6650022041420E-01
    14  1.3000000000000E-01  9.3758270566752E-01  1.7996162818154E-01
    15  1.4000000000000E-01  9.9926980768534E-01  1.9325570327397E-01
    16  1.5000000000000E-01  1.0587139131033E+00  2.0634747401441E-01
    17  1.6000000000000E-01  1.1157821546887E+00  2.1919901984101E-01
    18  1.7000000000000E-01  1.1703474218336E+00  2.3176986780692E-01
    19  1.8000000000000E-01  1.2222887591454E+00  2.4401747292309E-01
    20  1.9000000000000E-01  1.2714917605051E+00  2.5589777596705E-01
    21  2.0000000000000E-01  1.3178489564011E+00  2.6736583087504E-01
    22  2.1000000000000E-01  1.3612601921541E+00  2.7837649244954E-01
    23  2.2000000000000E-01  1.4016329944835E+00  2.8888515387227E-01
    24  2.3000000000000E-01  1.4388829237299E+00  2.9884852243735E-01
    25  2.4000000000000E-01  1.4729339089472E+00  3.0822542102797E-01
    26  2.5000000000000E-01  1.5037185630088E+00  3.1697760216954E-01
    27  2.6000000000000E-01  1.5311784748465E+00  3.2507056101589E-01
    28  2.7000000000000E-01  1.5552644759511E+00  3.3247433337083E-01
    29  2.8000000000000E-01  1.5759368783139E+00  3.3916426482313E-01
    30  2.9000000000000E-01  1.5931656810827E+00  3.4512173727830E-01
    31  3.0000000000000E-01  1.6069307433376E+00  3.5033483960632E-01
    32  3.1000000000000E-01  1.6172219205637E+00  3.5479896978285E-01
    33  3.2000000000000E-01  1.6240391626098E+00  3.5851735677527E-01
    34  3.3000000000000E-01  1.6273925711663E+00  3.6150149149995E-01
    35  3.4000000000000E-01  1.6273024150757E+00  3.6377145743869E-01
    36  3.5000000000000E-01  1.6237991020973E+00  3.6535615292954E-01
    37  3.6000000000000E-01  1.6169231060820E+00  3.6629339872012E-01
    38  3.7000000000000E-01  1.6067248488695E+00  3.6662992606370E-01
    39  3.8000000000000E-01  1.5932645365941E+00  3.6642124242470E-01
    40  3.9000000000000E-01  1.5766119504692E+00  3.6573137371119E-01
    41  4.0000000000000E-01  1.5568461925158E+00  3.6463248383966E-01
    42  4.1000000000000E-01  1.5340553870920E+00  3.6320437432942E-01
    43  4.2000000000000E-01  1.5083363394751E+00  3.6153386849245E-01
    44  4.3000000000000E-01  1.4797941531272E+00  3.5971408659654E-01
    45  4.4000000000000E-01  1.4485418076472E+00  3.5784362010790E-01
    46  4.5000000000000E-01  1.4146996997591E+00  3.5602561473426E-01
    47  4.6000000000000E-01  1.3783951500177E+00  3.5436677346472E-01
    48  4.7000000000000E-01  1.3397618782053E+00  3.5297629211381E-01
    49  4.8000000000000E-01  1.2989394506663E+00  3.5196474100254E-01
    50  4.9000000000000E-01  1.2560727030546E+00  3.5144290732900E-01
    51  5.0000000000000E-01  1.2113111421629E+00  3.5152061348000E-01
    52  5.1000000000000E-01  1.1648083306550E+00  3.5230552700156E-01
    53  5.2000000000000E-01  1.1167212586359E+00  3.5390197816947E-01
    54  5.3000000000000E-01  1.0672097060538E+00  3.5640980107898E-01
    55  5.4000000000000E-01  1.0164355999595E+00  3.5992321390310E-01
    56  5.5000000000000E-01  9.6456237061809E-01  3.6452975345536E-01
    57  5.6000000000000E-01  9.1175431040987E-01  3.7030927844315E-01
    58  5.7000000000000E-01  8.5817593934577E-01  3.7733305482263E-01
    59  5.8000000000000E-01  8.0399138087905E-01  3.8566293548065E-01
    60  5.9000000000000E-01  7.4936375150986E-01  3.9535064509224E-01
    61  6.0000000000000E-01  6.9445456746257E-01  4.0643717945456E-01
    62  6.1000000000000E-01  6.3942317146792E-01  4.1895232690561E-01
    63  6.2000000000000E-01  5.8442618240844E-01  4.3291431762459E-01
    64  6.3000000000000E-01  5.2961697029026E-01  4.4832960470981E-01
    65  6.4000000000000E-01  4.7514515869231E-01  4.6519277897081E-01
    66  6.5000000000000E-01  4.2115615651977E-01  4.8348661738483E-01
    67  6.6000000000000E-01  3.6779072055760E-01  5.0318226318661E-01
    68  6.7000000000000E-01  3.1518454998733E-01  5.2423953361718E-01
    69  6.8000000000000E-01  2.6346791370062E-01  5.4660734948360E-01
    70  6.9000000000000E-01  2.1276531092185E-01  5.7022427890814E-01
    71  7.0000000000000E-01  1.6319516534339E-01  5.9501918600159E-01
    72  7.1000000000000E-01  1.1486955268586E-01  6.2091197370830E-01
    73  7.2000000000000E-01  6.7893961325523E-02  6.4781440876511E-01
    74  7.3000000000000E-01  2.2367085385767E-02  6.7563101561358E-01
    75  7.4000000000000E-01 -2.1619350528111E-02  7.0426002522401E-01
    76  7.5000000000000E-01 -6.3980735958629E-02  7.3359436414479E-01
    77  7.6000000000000E-01 -1.0463968975312E-01  7.6352266869247E-01
    78  7.7000000000000E-01 -1.4352614703210E-01  7.9393030905354E-01
    79  7.8000000000000E-01 -1.8057741934036E-01  8.2470040818033E-01
    80  7.9000000000000E-01 -2.1573822940504E-01  8.5571484072841E-01
    81  8.0000000000000E-01 -2.4896072194441E-01  8.8685519789596E-01
    82  8.1000000000000E-01 -2.8020445195865E-01  9.1800370487527E-01
    83  8.2000000000000E-01 -3.0943635189051E-01  9.4904407869898E-01
    84  8.3000000000000E-01 -3.3663067897343E-01  9.7986231553943E-01
    85  8.4000000000000E-01 -3.6176894398891E-01  1.0103473979779E+00
    86  8.5000000000000E-01 -3.8483982253839E-01  1.0403919143745E+00
    87  8.6000000000000E-01 -4.0583904980079E-01  1.0698925842125E+00
    88  8.7000000000000E-01 -4.2476929959972E-01  1.0987506851315E+00
    89  8.8000000000000E-01 -4.4164004844881E-01  1.1268723792708E+00
    90  8.9000000000000E-01 -4.5646742508376E-01  1.1541689384815E+00
    91  9.0000000000000E-01 -4.6927404583122E-01  1.1805568699034E+00
    92  9.1000000000000E-01 -4.8008883601105E-01  1.2059579453016E+00
    93  9.2000000000000E-01 -4.8894683742580E-01  1.2302991393854E+00
    94  9.3000000000000E-01 -4.9588900186247E-01  1.2535124840600E+00
    95  9.4000000000000E-01 -5.0096197042206E-01  1.2755348471469E+00
    96  9.5000000000000E-01 -5.0421783840519E-01  1.2963076455401E+00
    97  9.6000000000000E-01 -5.0571390542064E-01  1.3157765039936E+00
    98  9.7000000000000E-01 -5.0551241035091E-01  1.3338908717635E+00
    99  9.8000000000000E-01 -5.0368025080698E-01  1.3506036101081E+00
   100  9.9000000000000E-01 -5.0028868673501E-01  1.3658705641930E+00
   101  1.0000000000000E+00 -4.9541302790153E-01  1.3796501332199E+00
   102  1.0100000000000E+00 -4.8913230508113E-01  1.3919028526077E+00
   103  1.0200000000000E+00 -4.8152892490101E-01  1.4025910017943E+00
   104  1.0300000000000E+00 -4.7268830845917E-01  1.4116782506942E+00
   105  1.0400000000000E+00 -4.6269851402483E-01  1.4191293570594E+00
   106  1.0500000000000E+00 -4.5164984434909E-01  1.4249099259497E+00
   107  1.0600000000000E+00 -4.3963443935674E-01  1.4289862412476E+00
   108  1.0700000000000E+00 -4.2674585525324E-01  1.4313251776714E+00
   109  1.0800000000000E+00 -4.1307863135923E-01  1.4318942000640E+00
   110  1.0900000000000E+00 -3.9872784627379E-01  1.4306614549126E+00
   111  1.1000000000000E+00 -3.8378866526167E-01  1.4275959570909E+00
   112  1.1100000000000E+00 -3.6835588105319E-01  1.4226678727677E+00
   113  1.1200000000000E+00 -3.5252345053224E-01  1.4158488973170E+00
   114  1.1300000000000E+00 -3.3638403006252E-01  1.4071127249310E+00
   115  1.1400000000000E+00 -3.2002851245794E-01  1.3964356045322E+00
   116  1.1500000000000E+00 -3.0354556883491E-01  1.3837969745176E+00
   117  1.1600000000000E+00 -2.8702119878550E-01  1.3691801669109E+00
   118  1.1700000000000E+00 -2.7053829247686E-01  1.3525731696645E+00
   119  1.1800000000000E+00 -2.5417620840772E-01  1.3339694341847E+00
   120  1.1900000000000E+00 -2.3801037063377E-01  1.3133687136908E+00
   121  1.2000000000000E+00 -2.2211188930575E-01  1.2907779167665E+00
   122  1.2100000000000E+00 -2.0654720834494E-01  1.2662119594856E+00
   123  1.2200000000000E+00 -1.9137778400629E-01  1.2396945987698E+00
   124  1.2300000000000E+00 -1.7665979795104E-01  1.2112592292203E+00
   125  1.2400000000000E+00 -1.6244390826425E-01  1.1809496255479E+00
   126  1.2500000000000E+00 -1.4877504161106E-01  1.1488206129223E+00
   127  1.2600000000000E+00 -1.3569222942957E-01  1.1149386480710E+00
   128  1.2700000000000E+00 -1.2322849070816E-01  1.0793822947847E+00
   129  1.2800000000000E+00 -1.1141076349553E-01  1.0422425786141E+00
   130  1.2900000000000E+00 -1.0025988684888E-01  1.0036232069544E+00
   131  1.3000000000000E+00 -8.9790634437030E-02  9.6364064241254E-01
   132  1.3100000000000E+00 -8.0011800494858E-02  9.2242401928706E-01
   133  1.3200000000000E+00 -7.0926338275582E-02  8.8011489514380E-01
   134  1.3300000000000E+00 -6.2531550572509E-02  8.3686683182651E-01
   135  1.3400000000000E+00 -5.4819331294443E-02  7.9284480273773E-01
   136  1.3500000000000E+00 -4.7776456482939E-02  7.4822442584445E-01
   137  1.3600000000000E+00 -4.1384922567333E-02  7.0319102454238E-01
   138  1.3700000000000E+00 -3.5622329065118E-02  6.5793852124931E-01
   139  1.3800000000000E+00 -3.0462302370556E-02  6.1266817129470E-01
   140  1.3900000000000E+00 -2.5874956731366E-02  5.6758714733416E-01
   141  1.4000000000000E+00 -2.1827388008237E-02  5.2290698706099E-01
   142  1.4100000000000E+00 -1.8284195344091E-02  4.7884191941192E-01
   143  1.4200000000000E+00 -1.5208025455638E-02  4.3560708668637E-01
   144  1.4300000000000E+00 -1.2560133899138E-02  3.9341668201103E-01
   145  1.4400000000000E+00 -1.0300957363941E-02  3.5248202333945E-01
   146  1.4500000000000E+00 -8.3906908168430E-03  3.1300958664257E-01
   147  1.4600000000000E+00 -6.7898631601511E-03  2.7519902211011E-01
   148  1.4700000000000E+00 -5.4599049822741E-03  2.3924117800383E-01
   149  1.4800000000000E+00 -4.3637019722039E-03  2.0531615727861E-01
   150  1.4900000000000E+00 -3.4661275972234E-03  1.7359143254141E-01
   151  1.5000000000000E+00 -2.7345514033646E-03  1.4422002514266E-01
   152  1.5100000000000E+00 -2.1393012199547E-03  1.1733887915289E-01
   153  1.5200000000000E+00 -1.6541434916145E-03  9.3067033762027E-02
   154  1.5300000000000E+00 -1.2589122787576E-03  7.1485921343572E-02
   155  1.5400000000000E+00 -9.3690042496059E-04  5.2659975453538E-02
   156  1.5500000000000E+00 -6.7155500879819E-04  3.6666432369924E-02
   157  1.5600000000000E+00 -4.5193257688067E-04  2.3554913282993E-02
   158  1.5700000000000E+00 -2.7245812031405E-04  1.3349168973666E-02
   159  1.5800000000000E+00 -1.3303712088419E-04  6.0483366535083E-03
   160  1.5900000000000E+00 -3.8505519599493E-05  1.6094049598795E-03
   161  1.6000000000000E+00 -9.2958162575024E-07  3.5251034806733E-05
   162  1.6100000000000E+00  1.5113024793893E-07 -5.5421686732723E-06
   163  1.6200000000000E+00 -1.1353921669206E-08  4.4085678172596E-07
   164  1.63 -0. -0.
   165  1.64  0.  0.
   166  1.65  0.  0.
   167  1.66  0.  0.
   168  1.67  0.  0.
   169  1.68  0.  0.
   170  1.69  0.  0.
   171  1.70  0.  0.
   172  1.71  0.  0.
   173  1.72  0.  0.
   174  1.73  0.  0.
   175  1.74  0.  0.
   176  1.75  0.  0.
   177  1.76  0.  0.
   178  1.77  0.  0.
   179  1.78  0.  0.
   180  1.79  0.  0.
   181  1.80  0.  0.
   182  1.81  0.  0.
   183  1.82  0.  0.
   184  1.83  0.  0.
   185  1.84  0.  0.
   186  1.85  0.  0.
   187  1.86  0.  0.
   188  1.87  0.  0.
   189  1.88  0.  0.
   190  1.89  0.  0.
   191  1.90  0.  0.
   192  1.91  0.  0.
   193  1.92  0.  0.
   194  1.93  0.  0.
   195  1.94  0.  0.
   196  1.95  0.  0.
   197  1.96  0.  0.
   198  1.97  0.  0.
   199  1.98  0.  0.
   200  1.99  0.  0.
   201  2.00  0.  0.
   202  2.01  0.  0.
   203  2.02  0.  0.
   204  2.03  0.  0.
   205  2.04  0.  0.
   206  2.05  0.  0.
   207  2.06  0.  0.
   208  2.07  0.  0.
   209  2.08  0.  0.
   210  2.09  0.  0.
   211  2.10  0.  0.
   212  2.11  0.  0.
   213  2.12  0.  0.
   214  2.13  0.  0.
   215  2.14  0.  0.
   216  2.15  0.  0.
   217  2.16  0.  0.
   218  2.17  0.  0.
   219  2.18  0.  0.
   220  2.19  0.  0.
   221  2.20  0.  0.
   222  2.21  0.  0.
   223  2.22  0.  0.
   224  2.23  0.  0.
   225  2.24  0.  0.
   226  2.25  0.  0.
   227  2.26  0.  0.
   228  2.27  0.  0.
   229  2.28  0.  0.
   230  2.29  0.  0.
   231  2.30  0.  0.
   232  2.31  0.  0.
   233  2.32  0.  0.
   234  2.33  0.  0.
   235  2.34  0.  0.
   236  2.35  0.  0.
   237  2.36  0.  0.
   238  2.37  0.  0.
   239  2.38  0.  0.
   240  2.39  0.  0.
   241  2.40  0.  0.
   242  2.41  0.  0.
   243  2.42  0.  0.
   244  2.43  0.  0.
   245  2.44  0.  0.
   246  2.45  0.  0.
   247  2.46  0.  0.
   248  2.47  0.  0.
   249  2.48  0.  0.
   250  2.49  0.  0.
   251  2.50  0.  0.
   252  2.51  0.  0.
   253  2.52  0.  0.
   254  2.53  0.  0.
   255  2.54  0.  0.
   256  2.55  0.  0.
   257  2.56  0.  0.
   258  2.57  0.  0.
   259  2.58  0.  0.
   260  2.59  0.  0.
   261  2.60  0.  0.
   262  2.61  0.  0.
   263  2.62  0.  0.
   264  2.63  0.  0.
   265  2.64  0.  0.
   266  2.65  0.  0.
   267  2.66  0.  0.
   268  2.67  0.  0.
   269  2.68  0.  0.
   270  2.69  0.  0.
   271  2.70  0.  0.
   272  2.71  0.  0.
   273  2.72  0.  0.
   274  2.73  0.  0.
   275  2.74  0.  0.
   276  2.75  0.  0.
   277  2.76  0.  0.
   278  2.77  0.  0.
   279  2.78  0.  0.
   280  2.79  0.  0.
   281  2.80  0.  0.
   282  2.81  0.  0.
   283  2.82  0.  0.
   284  2.83  0.  0.
   285  2.84  0.  0.
   286  2.85  0.  0.
   287  2.86  0.  0.
   288  2.87  0.  0.
   289  2.88  0.  0.
   290  2.89  0.  0.
   291  2.90  0.  0.
   292  2.91  0.  0.
   293  2.92  0.  0.
   294  2.93  0.  0.
   295  2.94  0.  0.
   296  2.95  0.  0.
   297  2.96  0.  0.
   298  2.97  0.  0.
   299  2.98  0.  0.
   300  2.99  0.  0.
   301  3.00  0.  0.
   302  3.01  0.  0.
   303  3.02  0.  0.
   304  3.03  0.  0.
   305  3.04  0.  0.
   306  3.05  0.  0.
   307  3.06  0.  0.
   308  3.07  0.  0.
   309  3.08  0.  0.
   310  3.09  0.  0.
   311  3.10  0.  0.
   312  3.11  0.  0.
   313  3.12  0.  0.
   314  3.13  0.  0.
   315  3.14  0.  0.
   316  3.15  0.  0.
   317  3.16  0.  0.
   318  3.17  0.  0.
   319  3.18  0.  0.
   320  3.19  0.  0.
   321  3.20  0.  0.
   322  3.21  0.  0.
   323  3.22  0.  0.
   324  3.23  0.  0.
   325  3.24  0.  0.
   326  3.25  0.  0.
   327  3.26  0.  0.
   328  3.27  0.  0.
   329  3.28  0.  0.
   330  3.29  0.  0.
   331  3.30  0.  0.
   332  3.31  0.  0.
   333  3.32  0.  0.
   334  3.33  0.  0.
   335  3.34  0.  0.
   336  3.35  0.  0.
   337  3.36  0.  0.
   338  3.37  0.  0.
   339  3.38  0.  0.
   340  3.39  0.  0.
   341  3.40  0.  0.
   342  3.41  0.  0.
   343  3.42  0.  0.
   344  3.43  0.  0.
   345  3.44  0.  0.
   346  3.45  0.  0.
   347  3.46  0.  0.
   348  3.47  0.  0.
   349  3.48  0.  0.
   350  3.49  0.  0.
   351  3.50  0.  0.
   352  3.51  0.  0.
   353  3.52  0.  0.
   354  3.53  0.  0.
   355  3.54  0.  0.
   356  3.55  0.  0.
   357  3.56  0.  0.
   358  3.57  0.  0.
   359  3.58  0.  0.
   360  3.59  0.  0.
   361  3.60  0.  0.
   362  3.61  0.  0.
   363  3.62  0.  0.
   364  3.63  0.  0.
   365  3.64  0.  0.
   366  3.65  0.  0.
   367  3.66  0.  0.
   368  3.67  0.  0.
   369  3.68  0.  0.
   370  3.69  0.  0.
   371  3.70  0.  0.
   372  3.71  0.  0.
   373  3.72  0.  0.
   374  3.73  0.  0.
   375  3.74  0.  0.
   376  3.75  0.  0.
   377  3.76  0.  0.
   378  3.77  0.  0.
   379  3.78  0.  0.
   380  3.79  0.  0.
   381  3.80  0.  0.
   382  3.81  0.  0.
   383  3.82  0.  0.
   384  3.83  0.  0.
   385  3.84  0.  0.
   386  3.85  0.  0.
   387  3.86  0.  0.
   388  3.87  0.  0.
   389  3.88  0.  0.
   390  3.89  0.  0.
   391  3.90  0.  0.
   392  3.91  0.  0.
   393  3.92  0.  0.
   394  3.93  0.  0.
   395  3.94  0.  0.
   396  3.95  0.  0.
   397  3.96  0.  0.
   398  3.97  0.  0.
   399  3.98  0.  0.
   400  3.99  0.  0.
   401  4.00  0.  0.
   402  4.01  0.  0.
   403  4.02  0.  0.
   404  4.03  0.  0.
   405  4.04  0.  0.
   406  4.05  0.  0.
   407  4.06  0.  0.
   408  4.07  0.  0.
   409  4.08  0.  0.
   410  4.09  0.  0.
   411  4.10  0.  0.
   412  4.11  0.  0.
   413  4.12  0.  0.
   414  4.13  0.  0.
   415  4.14  0.  0.
   416  4.15  0.  0.
   417  4.16  0.  0.
   418  4.17  0.  0.
   419  4.18  0.  0.
   420  4.19  0.  0.
   421  4.20  0.  0.
   422  4.21  0.  0.
   423  4.22  0.  0.
   424  4.23  0.  0.
   425  4.24  0.  0.
   426  4.25  0.  0.
   427  4.26  0.  0.
   428  4.27  0.  0.
   429  4.28  0.  0.
   430  4.29  0.  0.
   431  4.30  0.  0.
   432  4.31  0.  0.
   433  4.32  0.  0.
   434  4.33  0.  0.
   435  4.34  0.  0.
   436  4.35  0.  0.
   437  4.36  0.  0.
   438  4.37  0.  0.
   439  4.38  0.  0.
   440  4.39  0.  0.
   441  4.40  0.  0.
   442  4.41  0.  0.
   443  4.42  0.  0.
   444  4.43  0.  0.
   445  4.44  0.  0.
   446  4.45  0.  0.
   447  4.46  0.  0.
   448  4.47  0.  0.
   449  4.48  0.  0.
   450  4.49  0.  0.
   451  4.50  0.  0.
   452  4.51  0.  0.
   453  4.52  0.  0.
   454  4.53  0.  0.
   455  4.54  0.  0.
   456  4.55  0.  0.
   457  4.56  0.  0.
   458  4.57  0.  0.
   459  4.58  0.  0.
   460  4.59  0.  0.
   461  4.60  0.  0.
   462  4.61  0.  0.
   463  4.62  0.  0.
   464  4.63  0.  0.
   465  4.64  0.  0.
   466  4.65  0.  0.
   467  4.66  0.  0.
   468  4.67  0.  0.
   469  4.68  0.  0.
   470  4.69  0.  0.
   471  4.70  0.  0.
   472  4.71  0.  0.
   473  4.72  0.  0.
   474  4.73  0.  0.
   475  4.74  0.  0.
   476  4.75  0.  0.
   477  4.76  0.  0.
   478  4.77  0.  0.
   479  4.78  0.  0.
   480  4.79  0.  0.
   481  4.80  0.  0.
   482  4.81  0.  0.
   483  4.82  0.  0.
   484  4.83  0.  0.
   485  4.84  0.  0.
   486  4.85  0.  0.
   487  4.86  0.  0.
   488  4.87  0.  0.
   489  4.88  0.  0.
   490  4.89  0.  0.
   491  4.90  0.  0.
   492  4.91  0.  0.
   493  4.92  0.  0.
   494  4.93  0.  0.
   495  4.94  0.  0.
   496  4.95  0.  0.
   497  4.96  0.  0.
   498  4.97  0.  0.
   499  4.98  0.  0.
   500  4.99  0.  0.
   501  5.00  0.  0.
   502  5.01  0.  0.
   503  5.02  0.  0.
   504  5.03  0.  0.
   505  5.04  0.  0.
   506  5.05  0.  0.
   507  5.06  0.  0.
   508  5.07  0.  0.
   509  5.08  0.  0.
   510  5.09  0.  0.
   511  5.10  0.  0.
   512  5.11  0.  0.
   513  5.12  0.  0.
   514  5.13  0.  0.
   515  5.14  0.  0.
   516  5.15  0.  0.
   517  5.16  0.  0.
   518  5.17  0.  0.
   519  5.18  0.  0.
   520  5.19  0.  0.
   521  5.20  0.  0.
   522  5.21  0.  0.
   523  5.22  0.  0.
   524  5.23  0.  0.
   525  5.24  0.  0.
   526  5.25  0.  0.
   527  5.26  0.  0.
   528  5.27  0.  0.
   529  5.28  0.  0.
   530  5.29  0.  0.
   531  5.30  0.  0.
   532  5.31  0.  0.
   533  5.32  0.  0.
   534  5.33  0.  0.
   535  5.34  0.  0.
   536  5.35  0.  0.
   537  5.36  0.  0.
   538  5.37  0.  0.
   539  5.38  0.  0.
   540  5.39  0.  0.
   541  5.40  0.  0.
   542  5.41  0.  0.
   543  5.42  0.  0.
   544  5.43  0.  0.
   545  5.44  0.  0.
   546  5.45  0.  0.
   547  5.46  0.  0.
   548  5.47  0.  0.
   549  5.48  0.  0.
   550  5.49  0.  0.
   551  5.50  0.  0.
   552  5.51  0.  0.
   553  5.52  0.  0.
   554  5.53  0.  0.
   555  5.54  0.  0.
   556  5.55  0.  0.
   557  5.56  0.  0.
   558  5.57  0.  0.
   559  5.58  0.  0.
   560  5.59  0.  0.
   561  5.60  0.  0.
   562  5.61  0.  0.
   563  5.62  0.  0.
   564  5.63  0.  0.
   565  5.64  0.  0.
   566  5.65  0.  0.
   567  5.66  0.  0.
   568  5.67  0.  0.
   569  5.68  0.  0.
   570  5.69  0.  0.
   571  5.70  0.  0.
   572  5.71  0.  0.
   573  5.72  0.  0.
   574  5.73  0.  0.
   575  5.74  0.  0.
   576  5.75  0.  0.
   577  5.76  0.  0.
   578  5.77  0.  0.
   579  5.78  0.  0.
   580  5.79  0.  0.
   581  5.80  0.  0.
   582  5.81  0.  0.
   583  5.82  0.  0.
   584  5.83  0.  0.
   585  5.84  0.  0.
   586  5.85  0.  0.
   587  5.86  0.  0.
   588  5.87  0.  0.
   589  5.88  0.  0.
   590  5.89  0.  0.
   591  5.90  0.  0.
   592  5.91  0.  0.
   593  5.92  0.  0.
   594  5.93  0.  0.
   595  5.94  0.  0.
   596  5.95  0.  0.
   597  5.96  0.  0.
   598  5.97  0.  0.
   599  5.98  0.  0.
   600  5.99  0.  0.
   1                         6.0122811591355E+00 -6.2148468994306E-01
     1  0.0000000000000E+00  3.4869492016032E-10  8.6997048454052E-09
     2  1.0000000000000E-02  1.3527824096494E-03 -1.0289839611308E-03
     3  2.0000000000000E-02  5.4062499371815E-03 -4.1183903964279E-03
     4  3.0000000000000E-02  1.2145785742121E-02 -9.2753711643753E-03
     5  4.0000000000000E-02  2.1547102436350E-02 -1.6511145232696E-02
     6  5.0000000000000E-02  3.3576352406720E-02 -2.5839965555759E-02
     7  6.0000000000000E-02  4.8190280885593E-02 -3.7277708459760E-02
     8  7.0000000000000E-02  6.5336420415391E-02 -5.0840120396539E-02
     9  8.0000000000000E-02  8.4953325004510E-02 -6.6540765626578E-02
    10  9.0000000000000E-02  1.0697084195090E-01 -8.4388726182043E-02
    11  1.0000000000000E-01  1.3131041902127E-01 -1.0438611217321E-01
    12  1.1000000000000E-01  1.5788544442236E-01 -1.2652544599653E-01
    13  1.2000000000000E-01  1.8660161679036E-01 -1.5078698815766E-01
    14  1.3000000000000E-01  2.1735734225722E-01 -1.7713607514495E-01
    15  1.4000000000000E-01  2.5004415553165E-01 -2.0552054101668E-01
    16  1.5000000000000E-01  2.8454716185787E-01 -2.3586829405935E-01
    17  1.6000000000000E-01  3.2074549668821E-01 -2.6808511803528E-01
    18  1.7000000000000E-01  3.5851279992459E-01 -3.0205276418859E-01
    19  1.8000000000000E-01  3.9771770164843E-01 -3.3762739537925E-01
    20  1.9000000000000E-01  4.3822431636526E-01 -3.7463843755000E-01
    21  2.0000000000000E-01  4.7989274293647E-01 -4.1288788631569E-01
    22  2.1000000000000E-01  5.2257956755248E-01 -4.5215010793911E-01
    23  2.2000000000000E-01  5.6613836731396E-01 -4.9217216448452E-01
    24  2.3000000000000E-01  6.1042021222581E-01 -5.3267468270225E-01
    25  2.4000000000000E-01  6.5527416366667E-01 -5.7335327539657E-01
    26  2.5000000000000E-01  7.0054776766820E-01 -6.1388051287376E-01
    27  2.6000000000000E-01  7.4608754161821E-01 -6.5390843078147E-01
    28  2.7000000000000E-01  7.9173945328163E-01 -6.9307154945728E-01
    29  2.8000000000000E-01  8.3734939130880E-01 -7.3099036902978E-01
    30  2.9000000000000E-01  8.8276362666425E-01 -7.6727529417947E-01
    31  3.0000000000000E-01  9.2782926465491E-01 -8.0153093288150E-01
    32  3.1000000000000E-01  9.7239468746038E-01 -8.3336070481519E-01
    33  3.2000000000000E-01  1.0163099872623E+00 -8.6237168761976E-01
    34  3.3000000000000E-01  1.0594273902321E+00 -8.8817962296043E-01
    35  3.4000000000000E-01  1.1016016717640E+00 -9.1041399958309E-01
    36  3.5000000000000E-01  1.1426905634235E+00 -9.2872312728672E-01
    37  3.6000000000000E-01  1.1825551521321E+00 -9.4277911411455E-01
    38  3.7000000000000E-01  1.2210602721074E+00 -9.5228265910374E-01
    39  3.8000000000000E-01  1.2580748900409E+00 -9.5696757466044E-01
    40  3.9000000000000E-01  1.2934724839147E+00 -9.5660495602418E-01
    41  4.0000000000000E-01  1.3271314157348E+00 -9.5100692030729E-01
    42  4.1000000000000E-01  1.3589352983029E+00 -9.4002984415863E-01
    43  4.2000000000000E-01  1.3887733559530E+00 -9.2357703709871E-01
    44  4.3000000000000E-01  1.4165407789595E+00 -9.0160079686167E-01
    45  4.4000000000000E-01  1.4421390710757E+00 -8.7410380349559E-01
    46  4.5000000000000E-01  1.4654763893976E+00 -8.4113982032439E-01
    47  4.6000000000000E-01  1.4864678754697E+00 -8.0281368195298E-01
    48  4.7000000000000E-01  1.5050359762701E+00 -7.5928056207657E-01
    49  4.8000000000000E-01  1.5211107534269E+00 -7.1074452669734E-01
    50  4.9000000000000E-01  1.5346301787519E+00 -6.5745639121202E-01
    51  5.0000000000000E-01  1.5455404139179E+00 -5.9971091246478E-01
    52  5.1000000000000E-01  1.5537960718766E+00 -5.3784335901517E-01
    53  5.2000000000000E-01  1.5593604574109E+00 -4.7222551431333E-01
    54  5.3000000000000E-01  1.5622057840508E+00 -4.0326117797591E-01
    55  5.4000000000000E-01  1.5623133644613E+00 -3.3138123970648E-01
    56  5.5000000000000E-01  1.5596737713311E+00 -2.5703840841259E-01
    57  5.6000000000000E-01  1.5542869657746E+00 -1.8070168557366E-01
    58  5.7000000000000E-01  1.5461623902857E+00 -1.0285067676696E-01
    59  5.8000000000000E-01  1.5353190233782E+00 -2.3969838362649E-02
    60  5.9000000000000E-01  1.5217853931925E+00  5.5457242329368E-02
    61  6.0000000000000E-01  1.5055995475622E+00  1.3495343577127E-01
    62  6.1000000000000E-01  1.4868089783002E+00  2.1405343254429E-01
    63  6.2000000000000E-01  1.4654704977879E+00  2.9230878841063E-01
    64  6.3000000000000E-01  1.4416500663334E+00  3.6929256724486E-01
    65  6.4000000000000E-01  1.4154225691877E+00  4.4460350472708E-01
    66  6.5000000000000E-01  1.3868715425848E+00  5.1786962495869E-01
    67  6.6000000000000E-01  1.3560888486753E+00  5.8875125278713E-01
    68  6.7000000000000E-01  1.3231742997688E+00  6.5694337641579E-01
    69  6.8000000000000E-01  1.2882352328579E+00  7.2217732760472E-01
    70  6.9000000000000E-01  1.2513860359755E+00  7.8422176019690E-01
    71  7.0000000000000E-01  1.2127476285174E+00  8.4288292157442E-01
    72  7.1000000000000E-01  1.1724468982385E+00  8.9800422569010E-01
    73  7.2000000000000E-01  1.1306160981937E+00  9.4946515025599E-01
    74  7.3000000000000E-01  1.0873922074320E+00  9.9717949422794E-01
    75  7.4000000000000E-01  1.0429162597600E+00  1.0410930446288E+00
    76  7.5000000000000E-01  9.9733264535229E-01  1.0811807137442E+00
    77  7.6000000000000E-01  9.5078839040028E-01  1.1174432185557E+00
    78  7.7000000000000E-01  9.0343242034566E-01  1.1499033837203E+00
    79  7.8000000000000E-01  8.5541481253268E-01  1.1786021572618E+00
    80  7.9000000000000E-01  8.0688604433228E-01  1.2035944342371E+00
    81  8.0000000000000E-01  7.5799624293198E-01  1.2249447878342E+00
    82  8.1000000000000E-01  7.0889444304676E-01  1.2427232095554E+00
    83  8.2000000000000E-01  6.5972785878542E-01  1.2570009602588E+00
    84  8.3000000000000E-01  6.1064117580224E-01  1.2678466318616E+00
    85  8.4000000000000E-01  5.6177586967601E-01  1.2753225154601E+00
    86  8.5000000000000E-01  5.1326955618956E-01  1.2794813655434E+00
    87  8.6000000000000E-01  4.6525537883512E-01  1.2803636419860E+00
    88  8.7000000000000E-01  4.1786143844953E-01  1.2779953017123E+00
    89  8.8000000000000E-01  3.7121026939360E-01  1.2723862005299E+00
    90  8.9000000000000E-01  3.2541836613891E-01  1.2635291528148E+00
    91  9.0000000000000E-01  2.8059576352118E-01  1.2513996827582E+00
    92  9.1000000000000E-01  2.3684567327079E-01  1.2359564860000E+00
    93  9.2000000000000E-01  1.9426417874808E-01  1.2171426049728E+00
    94  9.3000000000000E-01  1.5293998910394E-01  1.1948873054636E+00
    95  9.4000000000000E-01  1.1295425336597E-01  1.1691086260743E+00
    96  9.5000000000000E-01  7.4380434228478E-02  1.1397165567540E+00
    97  9.6000000000000E-01  3.7284240611449E-02  1.1066167876885E+00
    98  9.7000000000000E-01  1.7236173615456E-03  1.0697149558879E+00
    99  9.8000000000000E-01 -3.2251210193114E-02  1.0289213040857E+00
   100  9.9000000000000E-01 -6.4597639741843E-02  9.8415565534623E-01
   101  1.0000000000000E+00 -9.5280547019473E-02  9.3535259730723E-01
   102  1.0100000000000E+00 -1.2427209634681E-01  8.8246676248195E-01
   103  1.0200000000000E+00 -1.5155151110662E-01  8.2547808569413E-01
   104  1.0300000000000E+00 -1.7710480894356E-01  7.6439691666359E-01
   105  1.0400000000000E+00 -2.0092450676125E-01  6.9926886509935E-01
   106  1.0500000000000E+00 -2.2300930079169E-01  6.3017925744811E-01
   107  1.0600000000000E+00 -2.4336372712625E-01  5.5725708870302E-01
   108  1.0700000000000E+00 -2.6199780812547E-01  4.8067835934462E-01
   109  1.0800000000000E+00 -2.7892669006461E-01  4.0066869651827E-01
   110  1.0900000000000E+00 -2.9417027722781E-01  3.1750516975069E-01
   111  1.1000000000000E+00 -3.0775286743706E-01  2.3151722478405E-01
   112  1.1100000000000E+00 -3.1970279369979E-01  1.4308667414927E-01
   113  1.1200000000000E+00 -3.3005207628595E-01  5.2646699728872E-02
   114  1.1300000000000E+00 -3.3883608910897E-01 -3.9320159556481E-02
   115  1.1400000000000E+00 -3.4609324379561E-01 -1.3228504298341E-01
   116  1.1500000000000E+00 -3.5186469429374E-01 -2.2567681478194E-01
   117  1.1600000000000E+00 -3.5619406429782E-01 -3.1888709134539E-01
   118  1.1700000000000E+00 -3.5912719917810E-01 -4.1127619826646E-01
   119  1.1800000000000E+00 -3.6071194349261E-01 -5.0217998750655E-01
   120  1.1900000000000E+00 -3.6099794455411E-01 -5.9091742684054E-01
   121  1.2000000000000E+00 -3.6003648192414E-01 -6.7679885669876E-01
   122  1.2100000000000E+00 -3.5788032213149E-01 -7.5913479419506E-01
   123  1.2200000000000E+00 -3.5458359736310E-01 -8.3724515053109E-01
   124  1.2300000000000E+00 -3.5020170637290E-01 -9.1046871666928E-01
   125  1.2400000000000E+00 -3.4479123539768E-01 -9.7817276319777E-01
   126  1.2500000000000E+00 -3.3840989647220E-01 -1.0397625940020E+00
   127  1.2600000000000E+00 -3.3111648020485E-01 -1.0946908898393E+00