Th    ONCVPSP-4.0.1  r_core=   1.20498   1.25651   1.20498   1.40776
90.0000     30.0000      231012    zatom,zion,pspd
8 -116133   3     4   600     0    pspcod,pspxc,lmax,lloc,mmax,r2well
5.99000000  5.00000000  0.00000000    rchrg fchrg qchrg
3     3     3     2    nproj
3     1           extension_switch
3     4     4    nprojso
0                         4.1940481928327E+01  4.1626153420503E+00 -1.0312840797921E+00
1  0.0000000000000E+00 -1.4164242800874E-07  3.9524435779814E-07  1.5309011558440E-08
2  1.0000000000000E-02  1.6510539461114E-01 -1.0733231048486E-01  1.6730614234954E-02
3  2.0000000000000E-02  3.2864088780212E-01 -2.1170136782807E-01  3.3462948101753E-02
4  3.0000000000000E-02  4.8907083794418E-01 -3.1023324652207E-01  5.0195830275267E-02
5  4.0000000000000E-02  6.4492702313671E-01 -4.0022962597053E-01  6.6922431293528E-02
6  5.0000000000000E-02  7.9483964026024E-01 -4.7924807536715E-01  8.3627739781664E-02
7  6.0000000000000E-02  9.3756515837095E-01 -5.4517361688052E-01  1.0028639353732E-01
8  7.0000000000000E-02  1.0720101526047E+00 -5.9627914739444E-01  1.1686096500683E-01
9  8.0000000000000E-02  1.1972503864005E+00 -6.3127269429735E-01  1.3330078537240E-01
10  9.0000000000000E-02  1.3125445771033E+00 -6.4932994757871E-01  1.4954137326736E-01
11  1.0000000000000E-01  1.4173424668524E+00 -6.5011103204618E-01  1.6550451361713E-01
12  1.1000000000000E-01  1.5112870203930E+00 -6.3376104111712E-01  1.8109900992096E-01
13  1.2000000000000E-01  1.5942107768877E+00 -6.0089442738321E-01  1.9622211014939E-01
14  1.3000000000000E-01  1.6661265865779E+00 -5.5256391444134E-01  2.1076158307112E-01
15  1.4000000000000E-01  1.7272131579382E+00 -4.9021513892802E-01  2.2459839898780E-01
16  1.5000000000000E-01  1.7777960197987E+00 -4.1562873182730E-01  2.3760994727329E-01
17  1.6000000000000E-01  1.8183246593756E+00 -3.3085198603528E-01  2.4967370347910E-01
18  1.7000000000000E-01  1.8493467256519E+00 -2.3812261724387E-01  2.6067124171034E-01
19  1.8000000000000E-01  1.8714802835186E+00 -1.3978739461368E-01  2.7049247404842E-01
20  1.9000000000000E-01  1.8853851641096E+00 -3.8218586893303E-02  2.7903998845253E-01
21  2.0000000000000E-01  1.8917344787439E+00  6.4268767346248E-02  2.8623335015511E-01
22  2.1000000000000E-01  1.8911873471091E+00  1.6549580195344E-01  2.9201322929734E-01
23  2.2000000000000E-01  1.8843638354474E+00  2.6349216628004E-01  2.9634521952181E-01
24  2.3000000000000E-01  1.8718230096094E+00  3.5655921011228E-01  2.9922321841094E-01
25  2.4000000000000E-01  1.8540448842720E+00  4.4332179572513E-01  3.0067225086066E-01
26  2.5000000000000E-01  1.8314168979262E+00  5.2276694568072E-01  3.0075063041450E-01
27  2.6000000000000E-01  1.8042253689750E+00  5.9426802201791E-01  2.9955137084187E-01
28  2.7000000000000E-01  1.7726521978343E+00  6.5759366550213E-01  2.9720278031113E-01
29  2.8000000000000E-01  1.7367768802293E+00  7.1290128332597E-01  2.9386819278421E-01
30  2.9000000000000E-01  1.6965836952513E+00  7.6071543975484E-01  2.8974481507299E-01
31  3.0000000000000E-01  1.6519737355020E+00  8.0189205626558E-01  2.8506169263574E-01
32  3.1000000000000E-01  1.6027812629924E+00  8.3756984574187E-01  2.8007682191198E-01
33  3.2000000000000E-01  1.5487937100525E+00  8.6911087057649E-01  2.7507346105477E-01
34  3.3000000000000E-01  1.4897745053506E+00  8.9803251031572E-01  2.7035571360015E-01
35  3.4000000000000E-01  1.4254877962807E+00  9.2593343651783E-01  2.6624348023664E-01
36  3.5000000000000E-01  1.3557240644187E+00  9.5441640959723E-01  2.6306689179116E-01
37  3.6000000000000E-01  1.2803255931901E+00  9.8501082684595E-01  2.6116035130247E-01
38  3.7000000000000E-01  1.1992107476935E+00  1.0190979585595E+00  2.6085632417907E-01
39  3.8000000000000E-01  1.1123960657644E+00  1.0578417101065E+00  2.6247902261834E-01
40  3.9000000000000E-01  1.0200152354102E+00  1.1021275455951E+00  2.6633813350111E-01
41  4.0000000000000E-01  9.2233414393518E-01  1.1525119110021E+00  2.7272273780277E-01
42  4.1000000000000E-01  8.1976132439294E-01  1.2091841121338E+00  2.8189556423734E-01
43  4.2000000000000E-01  7.1285329035526E-01  1.2719421495875E+00  2.9408771056087E-01
44  4.3000000000000E-01  6.0231443435283E-01  1.3401835055000E+00  3.0949395300955E-01
45  4.4000000000000E-01  4.8899136204445E-01  1.4129113337372E+00  3.2826874815070E-01
46  4.5000000000000E-01  3.7386173605100E-01  1.4887559460627E+00  3.5052301249112E-01
47  4.6000000000000E-01  2.5801790315545E-01  1.5660109319194E+00  3.7632174410438E-01
48  4.7000000000000E-01  1.4264576897101E-01  1.6426827188731E+00  4.0568252795779E-01
49  4.8000000000000E-01  2.8999558352769E-02  1.7165518935971E+00  4.3857494322706E-01
50  4.9000000000000E-01 -8.1626748502431E-02  1.7852441770008E+00  4.7492086738805E-01
51  5.0000000000000E-01 -1.8793039060740E-01  1.8463085969840E+00  5.1459564897358E-01
52  5.1000000000000E-01 -2.8863220637172E-01  1.8973001407140E+00  5.5743009925050E-01
53  5.2000000000000E-01 -3.8250935864674E-01  1.9358640044345E+00  6.0321323333929E-01
54  5.3000000000000E-01 -4.6842732561022E-01  1.9598184982056E+00  6.5169567402291E-01
55  5.4000000000000E-01 -5.4537009830295E-01  1.9672337074055E+00  7.0259361715346E-01
56  5.5000000000000E-01 -6.1246758271638E-01  1.9565031602980E+00  7.5559324654260E-01
57  5.6000000000000E-01 -6.6901929648589E-01  1.9264059956810E+00  8.1035547878731E-01
58  5.7000000000000E-01 -7.1451357403905E-01  1.8761574573269E+00  8.6652091479065E-01
59  5.8000000000000E-01 -7.4864164491017E-01  1.8054459501747E+00  9.2371487482449E-01
60  5.9000000000000E-01 -7.7130612232982E-01  1.7144553619190E+00  9.8155239776367E-01
61  6.0000000000000E-01 -7.8262362686093E-01  1.6038718655827E+00  1.0396430923997E+00
62  6.1000000000000E-01 -7.8292146598775E-01  1.4748749551684E+00  1.0975957392112E+00
63  6.2000000000000E-01 -7.7272848812070E-01  1.3291130081504E+00  1.1550225542223E+00
64  6.3000000000000E-01 -7.5276042141327E-01  1.1686641959276E+00  1.2115430421363E+00
65  6.4000000000000E-01 -7.2390018731028E-01  9.9598405762215E-01  1.2667873832313E+00
66  6.5000000000000E-01 -6.8717383958575E-01  8.1384149637782E-01  1.3203993169570E+00
67  6.6000000000000E-01 -6.4372291625874E-01  6.2524533519448E-01  1.3720385041337E+00
68  6.7000000000000E-01 -5.9477409959263E-01  4.3336386846479E-01  1.4213823685052E+00
69  6.8000000000000E-01 -5.4160715490838E-01  2.4144005596247E-01  1.4681274364996E+00
70  6.9000000000000E-01 -4.8552215990059E-01  5.2705121579463E-02  1.5119902108218E+00
71  7.0000000000000E-01 -4.2780704156459E-01 -1.2970666328171E-01  1.5527076283959E+00
72  7.1000000000000E-01 -3.6970640806044E-01 -3.0283931137900E-01  1.5900371657219E+00
73  7.2000000000000E-01 -3.1239259949614E-01 -4.6399003862810E-01  1.6237566645161E+00
74  7.3000000000000E-01 -2.5693978753991E-01 -6.1077550054590E-01  1.6536639572798E+00
75  7.4000000000000E-01 -2.0430183290404E-01 -7.4118740874424E-01  1.6795763759765E+00
76  7.5000000000000E-01 -1.5529446695658E-01 -8.5363598388794E-01  1.7013302272259E+00
77  7.6000000000000E-01 -1.1058220457559E-01 -9.4698014141965E-01  1.7187803143446E+00
78  7.7000000000000E-01 -7.0670225989931E-02 -1.0205437754839E+00  1.7317995803251E+00
79  7.8000000000000E-01 -3.5901292099773E-02 -1.0741179873542E+00  1.7402789366678E+00
80  7.9000000000000E-01 -6.4575870425176E-03 -1.1079495795745E+00  1.7441273311930E+00
81  8.0000000000000E-01  1.7632780288456E-02 -1.1227165889387E+00  1.7432720939679E+00
82  8.1000000000000E-01  3.6485031726429E-02 -1.1194920444034E+00  1.7376595847727E+00
83  8.2000000000000E-01  5.0343276511767E-02 -1.0996974960303E+00  1.7272561486178E+00
84  8.3000000000000E-01  5.9563017995004E-02 -1.0650481562940E+00  1.7120493682969E+00
85  8.4000000000000E-01  6.4591337023784E-02 -1.0174917165360E+00  1.6920495853933E+00
86  8.5000000000000E-01  6.5945527628999E-02 -9.5914304295594E-01  1.6672916441498E+00
87  8.6000000000000E-01  6.4190979786345E-02 -8.9221701548535E-01  1.6378367967378E+00
88  8.7000000000000E-01  5.9919093650054E-02 -8.1896174957814E-01  1.6037746942616E+00
89  8.8000000000000E-01  5.3725971134767E-02 -7.4159433892279E-01  1.5652253758088E+00
90  8.9000000000000E-01  4.6192566519013E-02 -6.6224108282671E-01  1.5223411584392E+00
91  9.0000000000000E-01  3.7866891247229E-02 -5.8288392461091E-01  1.4753083245544E+00
92  9.1000000000000E-01  2.9248763493332E-02 -5.0531453806666E-01  1.4243484998994E+00
93  9.2000000000000E-01  2.0777475073879E-02 -4.3109717078456E-01  1.3697196156939E+00
94  9.3000000000000E-01  1.2822622091659E-02 -3.6154099996910E-01  1.3117163522000E+00
95  9.4000000000000E-01  5.6782165641658E-03 -2.9768239276190E-01  1.2506699683989E+00
96  9.5000000000000E-01 -4.3993057331494E-04 -2.4027710337204E-01  1.1869474333150E+00
97  9.6000000000000E-01 -5.3936843542905E-03 -1.8980209713518E-01  1.1209497887157E+00
98  9.7000000000000E-01 -9.1191558579306E-03 -1.4646637924929E-01  1.0531096902154E+00
99  9.8000000000000E-01 -1.1620697477379E-02 -1.1022993377580E-01  9.8388809389872E-01
100  9.9000000000000E-01 -1.2962727838657E-02 -8.0829654804291E-02  9.1377007810791E-01
101  1.0000000000000E+00 -1.3259845192222E-02 -5.7810981819278E-02  8.4325981460642E-01
102  1.0100000000000E+00 -1.2665721411836E-02 -4.0563838270451E-02  7.7287472949967E-01
103  1.0200000000000E+00 -1.1361281303120E-02 -2.8361415647921E-02  7.0313892159937E-01
104  1.0300000000000E+00 -9.5426650223853E-03 -2.0400341885171E-02  6.3457593391981E-01
105  1.0400000000000E+00 -7.4094473440864E-03 -1.5840816707153E-02  5.6770100223789E-01
106  1.0500000000000E+00 -5.1535496813129E-03 -1.3845378731758E-02  5.0301293266020E-01
107  1.0600000000000E+00 -2.9492331847272E-03 -1.3615079002324E-02  4.4098578757517E-01
108  1.0700000000000E+00 -9.4450877135986E-04 -1.4421960260034E-02  3.8206058581937E-01
109  1.0800000000000E+00  7.4575201542002E-04 -1.5636866139998E-02  3.2663724799368E-01
110  1.0900000000000E+00  2.0447674565663E-03 -1.6751715037136E-02  2.7506704147737E-01
111  1.1000000000000E+00  2.9166535921973E-03 -1.7395453257494E-02  2.2764580140879E-01
112  1.1100000000000E+00  3.3669024790793E-03 -1.7342936637123E-02  1.8460822375225E-01
113  1.1200000000000E+00  3.4403372273353E-03 -1.6515963730278E-02  1.4612354430824E-01
114  1.1300000000000E+00  3.2161336797799E-03 -1.4975123016586E-02  1.1229288154859E-01
115  1.1400000000000E+00  2.8011731901426E-03 -1.2905323102031E-02  8.3149025612177E-02
116  1.1500000000000E+00  2.2539059853063E-03 -1.0422835577500E-02  5.8639781907990E-02
117  1.1600000000000E+00  1.4570480853416E-03 -7.2475108222968E-03  3.8599835036411E-02
118  1.1700000000000E+00  6.8315787434681E-04 -4.1320354381490E-03  2.2926414151354E-02
119  1.1800000000000E+00  1.5040065917775E-04 -1.7305756936803E-03  1.1472343276402E-02
120  1.1900000000000E+00 -5.6950766588023E-05 -3.8228103601193E-04  4.0481209414838E-03
121  1.2000000000000E+00 -2.5346280441027E-05 -1.9022136093032E-06  4.6766147788196E-04
122  1.2100000000000E+00  2.4203572439327E-06 -1.8550821354097E-06 -2.8730608663361E-05
123  1.2200000000000E+00  2.8091350744821E-08  1.6231304617778E-08 -6.2907218071685E-07
124  1.23  0.  0.  0.
125  1.24  0.  0.  0.
126  1.25  0.  0.  0.
127  1.26  0.  0.  0.
128  1.27  0.  0.  0.
129  1.28  0.  0.  0.
130  1.29  0.  0.  0.
131  1.30  0.  0.  0.
132  1.31  0.  0.  0.
133  1.32  0.  0.  0.
134  1.33  0.  0.  0.
135  1.34  0.  0.  0.
136  1.35  0.  0.  0.
137  1.36  0.  0.  0.
138  1.37  0.  0.  0.
139  1.38  0.  0.  0.
140  1.39  0.  0.  0.
141  1.40  0.  0.  0.
142  1.41  0.  0.  0.
143  1.42  0.  0.  0.
144  1.43  0.  0.  0.
145  1.44  0.  0.  0.
146  1.45  0.  0.  0.
147  1.46  0.  0.  0.
148  1.47  0.  0.  0.
149  1.48  0.  0.  0.
150  1.49  0.  0.  0.
151  1.50  0.  0.  0.
152  1.51  0.  0.  0.
153  1.52  0.  0.  0.
154  1.53  0.  0.  0.
155  1.54  0.  0.  0.
156  1.55  0.  0.  0.
157  1.56  0.  0.  0.
158  1.57  0.  0.  0.
159  1.58  0.  0.  0.
160  1.59  0.  0.  0.
161  1.60  0.  0.  0.
162  1.61  0.  0.  0.
163  1.62  0.  0.  0.
164  1.63  0.  0.  0.
165  1.64  0.  0.  0.
166  1.65  0.  0.  0.
167  1.66  0.  0.  0.
168  1.67  0.  0.  0.
169  1.68  0.  0.  0.
170  1.69  0.  0.  0.
171  1.70  0.  0.  0.
172  1.71  0.  0.  0.
173  1.72  0.  0.  0.
174  1.73  0.  0.  0.
175  1.74  0.  0.  0.
176  1.75  0.  0.  0.
177  1.76  0.  0.  0.
178  1.77  0.  0.  0.
179  1.78  0.  0.  0.
180  1.79  0.  0.  0.
181  1.80  0.  0.  0.
182  1.81  0.  0.  0.
183  1.82  0.  0.  0.
184  1.83  0.  0.  0.
185  1.84  0.  0.  0.
186  1.85  0.  0.  0.
187  1.86  0.  0.  0.
188  1.87  0.  0.  0.
189  1.88  0.  0.  0.
190  1.89  0.  0.  0.
191  1.90  0.  0.  0.
192  1.91  0.  0.  0.
193  1.92  0.  0.  0.
194  1.93  0.  0.  0.
195  1.94  0.  0.  0.
196  1.95  0.  0.  0.
197  1.96  0.  0.  0.
198  1.97  0.  0.  0.
199  1.98  0.  0.  0.
200  1.99  0.  0.  0.
201  2.00  0.  0.  0.
202  2.01  0.  0.  0.
203  2.02  0.  0.  0.
204  2.03  0.  0.  0.
205  2.04  0.  0.  0.
206  2.05  0.  0.  0.
207  2.06  0.  0.  0.
208  2.07  0.  0.  0.
209  2.08  0.  0.  0.
210  2.09  0.  0.  0.
211  2.10  0.  0.  0.
212  2.11  0.  0.  0.
213  2.12  0.  0.  0.
214  2.13  0.  0.  0.
215  2.14  0.  0.  0.
216  2.15  0.  0.  0.
217  2.16  0.  0.  0.
218  2.17  0.  0.  0.
219  2.18  0.  0.  0.
220  2.19  0.  0.  0.
221  2.20  0.  0.  0.
222  2.21  0.  0.  0.
223  2.22  0.  0.  0.
224  2.23  0.  0.  0.
225  2.24  0.  0.  0.
226  2.25  0.  0.  0.
227  2.26  0.  0.  0.
228  2.27  0.  0.  0.
229  2.28  0.  0.  0.
230  2.29  0.  0.  0.
231  2.30  0.  0.  0.
232  2.31  0.  0.  0.
233  2.32  0.  0.  0.
234  2.33  0.  0.  0.
235  2.34  0.  0.  0.
236  2.35  0.  0.  0.
237  2.36  0.  0.  0.
238  2.37  0.  0.  0.
239  2.38  0.  0.  0.
240  2.39  0.  0.  0.
241  2.40  0.  0.  0.
242  2.41  0.  0.  0.
243  2.42  0.  0.  0.
244  2.43  0.  0.  0.
245  2.44  0.  0.  0.
246  2.45  0.  0.  0.
247  2.46  0.  0.  0.
248  2.47  0.  0.  0.
249  2.48  0.  0.  0.
250  2.49  0.  0.  0.
251  2.50  0.  0.  0.
252  2.51  0.  0.  0.
253  2.52  0.  0.  0.
254  2.53  0.  0.  0.
255  2.54  0.  0.  0.
256  2.55  0.  0.  0.
257  2.56  0.  0.  0.
258  2.57  0.  0.  0.
259  2.58  0.  0.  0.
260  2.59  0.  0.  0.
261  2.60  0.  0.  0.
262  2.61  0.  0.  0.
263  2.62  0.  0.  0.
264  2.63  0.  0.  0.
265  2.64  0.  0.  0.
266  2.65  0.  0.  0.
267  2.66  0.  0.  0.
268  2.67  0.  0.  0.
269  2.68  0.  0.  0.
270  2.69  0.  0.  0.
271  2.70  0.  0.  0.
272  2.71  0.  0.  0.
273  2.72  0.  0.  0.
274  2.73  0.  0.  0.
275  2.74  0.  0.  0.
276  2.75  0.  0.  0.
277  2.76  0.  0.  0.
278  2.77  0.  0.  0.
279  2.78  0.  0.  0.
280  2.79  0.  0.  0.
281  2.80  0.  0.  0.
282  2.81  0.  0.  0.
283  2.82  0.  0.  0.
284  2.83  0.  0.  0.
285  2.84  0.  0.  0.
286  2.85  0.  0.  0.
287  2.86  0.  0.  0.
288  2.87  0.  0.  0.
289  2.88  0.  0.  0.
290  2.89  0.  0.  0.
291  2.90  0.  0.  0.
292  2.91  0.  0.  0.
293  2.92  0.  0.  0.
294  2.93  0.  0.  0.
295  2.94  0.  0.  0.
296  2.95  0.  0.  0.
297  2.96  0.  0.  0.
298  2.97  0.  0.  0.
299  2.98  0.  0.  0.
300  2.99  0.  0.  0.
301  3.00  0.  0.  0.
302  3.01  0.  0.  0.
303  3.02  0.  0.  0.
304  3.03  0.  0.  0.
305  3.04  0.  0.  0.
306  3.05  0.  0.  0.
307  3.06  0.  0.  0.
308  3.07  0.  0.  0.
309  3.08  0.  0.  0.
310  3.09  0.  0.  0.
311  3.10  0.  0.  0.
312  3.11  0.  0.  0.
313  3.12  0.  0.  0.
314  3.13  0.  0.  0.
315  3.14  0.  0.  0.
316  3.15  0.  0.  0.
317  3.16  0.  0.  0.
318  3.17  0.  0.  0.
319  3.18  0.  0.  0.
320  3.19  0.  0.  0.
321  3.20  0.  0.  0.
322  3.21  0.  0.  0.
323  3.22  0.  0.  0.
324  3.23  0.  0.  0.
325  3.24  0.  0.  0.
326  3.25  0.  0.  0.
327  3.26  0.  0.  0.
328  3.27  0.  0.  0.
329  3.28  0.  0.  0.
330  3.29  0.  0.  0.
331  3.30  0.  0.  0.
332  3.31  0.  0.  0.
333  3.32  0.  0.  0.
334  3.33  0.  0.  0.
335  3.34  0.  0.  0.
336  3.35  0.  0.  0.
337  3.36  0.  0.  0.
338  3.37  0.  0.  0.
339  3.38  0.  0.  0.
340  3.39  0.  0.  0.
341  3.40  0.  0.  0.
342  3.41  0.  0.  0.
343  3.42  0.  0.  0.
344  3.43  0.  0.  0.
345  3.44  0.  0.  0.
346  3.45  0.  0.  0.
347  3.46  0.  0.  0.
348  3.47  0.  0.  0.
349  3.48  0.  0.  0.
350  3.49  0.  0.  0.
351  3.50  0.  0.  0.
352  3.51  0.  0.  0.
353  3.52  0.  0.  0.
354  3.53  0.  0.  0.
355  3.54  0.  0.  0.
356  3.55  0.  0.  0.
357  3.56  0.  0.  0.
358  3.57  0.  0.  0.
359  3.58  0.  0.  0.
360  3.59  0.  0.  0.
361  3.60  0.  0.  0.
362  3.61  0.  0.  0.
363  3.62  0.  0.  0.
364  3.63  0.  0.  0.
365  3.64  0.  0.  0.
366  3.65  0.  0.  0.
367  3.66  0.  0.  0.
368  3.67  0.  0.  0.
369  3.68  0.  0.  0.
370  3.69  0.  0.  0.
371  3.70  0.  0.  0.
372  3.71  0.  0.  0.
373  3.72  0.  0.  0.
374  3.73  0.  0.  0.
375  3.74  0.  0.  0.
376  3.75  0.  0.  0.
377  3.76  0.  0.  0.
378  3.77  0.  0.  0.
379  3.78  0.  0.  0.
380  3.79  0.  0.  0.
381  3.80  0.  0.  0.
382  3.81  0.  0.  0.
383  3.82  0.  0.  0.
384  3.83  0.  0.  0.
385  3.84  0.  0.  0.
386  3.85  0.  0.  0.
387  3.86  0.  0.  0.
388  3.87  0.  0.  0.
389  3.88  0.  0.  0.
390  3.89  0.  0.  0.
391  3.90  0.  0.  0.
392  3.91  0.  0.  0.
393  3.92  0.  0.  0.
394  3.93  0.  0.  0.
395  3.94  0.  0.  0.
396  3.95  0.  0.  0.
397  3.96  0.  0.  0.
398  3.97  0.  0.  0.
399  3.98  0.  0.  0.
400  3.99  0.  0.  0.
401  4.00  0.  0.  0.
402  4.01  0.  0.  0.
403  4.02  0.  0.  0.
404  4.03  0.  0.  0.
405  4.04  0.  0.  0.
406  4.05  0.  0.  0.
407  4.06  0.  0.  0.
408  4.07  0.  0.  0.
409  4.08  0.  0.  0.
410  4.09  0.  0.  0.
411  4.10  0.  0.  0.
412  4.11  0.  0.  0.
413  4.12  0.  0.  0.
414  4.13  0.  0.  0.
415  4.14  0.  0.  0.
416  4.15  0.  0.  0.
417  4.16  0.  0.  0.
418  4.17  0.  0.  0.
419  4.18  0.  0.  0.
420  4.19  0.  0.  0.
421  4.20  0.  0.  0.
422  4.21  0.  0.  0.
423  4.22  0.  0.  0.
424  4.23  0.  0.  0.
425  4.24  0.  0.  0.
426  4.25  0.  0.  0.
427  4.26  0.  0.  0.
428  4.27  0.  0.  0.
429  4.28  0.  0.  0.
430  4.29  0.  0.  0.
431  4.30  0.  0.  0.
432  4.31  0.  0.  0.
433  4.32  0.  0.  0.
434  4.33  0.  0.  0.
435  4.34  0.  0.  0.
436  4.35  0.  0.  0.
437  4.36  0.  0.  0.
438  4.37  0.  0.  0.
439  4.38  0.  0.  0.
440  4.39  0.  0.  0.
441  4.40  0.  0.  0.
442  4.41  0.  0.  0.
443  4.42  0.  0.  0.
444  4.43  0.  0.  0.
445  4.44  0.  0.  0.
446  4.45  0.  0.  0.
447  4.46  0.  0.  0.
448  4.47  0.  0.  0.
449  4.48  0.  0.  0.
450  4.49  0.  0.  0.
451  4.50  0.  0.  0.
452  4.51  0.  0.  0.
453  4.52  0.  0.  0.
454  4.53  0.  0.  0.
455  4.54  0.  0.  0.
456  4.55  0.  0.  0.
457  4.56  0.  0.  0.
458  4.57  0.  0.  0.
459  4.58  0.  0.  0.
460  4.59  0.  0.  0.
461  4.60  0.  0.  0.
462  4.61  0.  0.  0.
463  4.62  0.  0.  0.
464  4.63  0.  0.  0.
465  4.64  0.  0.  0.
466  4.65  0.  0.  0.
467  4.66  0.  0.  0.
468  4.67  0.  0.  0.
469  4.68  0.  0.  0.
470  4.69  0.  0.  0.
471  4.70  0.  0.  0.
472  4.71  0.  0.  0.
473  4.72  0.  0.  0.
474  4.73  0.  0.  0.
475  4.74  0.  0.  0.
476  4.75  0.  0.  0.
477  4.76  0.  0.  0.
478  4.77  0.  0.  0.
479  4.78  0.  0.  0.
480  4.79  0.  0.  0.
481  4.80  0.  0.  0.
482  4.81  0.  0.  0.
483  4.82  0.  0.  0.
484  4.83  0.  0.  0.
485  4.84  0.  0.  0.
486  4.85  0.  0.  0.
487  4.86  0.  0.  0.
488  4.87  0.  0.  0.
489  4.88  0.  0.  0.
490  4.89  0.  0.  0.
491  4.90  0.  0.  0.
492  4.91  0.  0.  0.
493  4.92  0.  0.  0.
494  4.93  0.  0.  0.
495  4.94  0.  0.  0.
496  4.95  0.  0.  0.
497  4.96  0.  0.  0.
498  4.97  0.  0.  0.
499  4.98  0.  0.  0.
500  4.99  0.  0.  0.
501  5.00  0.  0.  0.
502  5.01  0.  0.  0.
503  5.02  0.  0.  0.
504  5.03  0.  0.  0.
505  5.04  0.  0.  0.
506  5.05  0.  0.  0.
507  5.06  0.  0.  0.
508  5.07  0.  0.  0.
509  5.08  0.  0.  0.
510  5.09  0.  0.  0.
511  5.10  0.  0.  0.
512  5.11  0.  0.  0.
513  5.12  0.  0.  0.
514  5.13  0.  0.  0.
515  5.14  0.  0.  0.
516  5.15  0.  0.  0.
517  5.16  0.  0.  0.
518  5.17  0.  0.  0.
519  5.18  0.  0.  0.
520  5.19  0.  0.  0.
521  5.20  0.  0.  0.
522  5.21  0.  0.  0.
523  5.22  0.  0.  0.
524  5.23  0.  0.  0.
525  5.24  0.  0.  0.
526  5.25  0.  0.  0.
527  5.26  0.  0.  0.
528  5.27  0.  0.  0.
529  5.28  0.  0.  0.
530  5.29  0.  0.  0.
531  5.30  0.  0.  0.
532  5.31  0.  0.  0.
533  5.32  0.  0.  0.
534  5.33  0.  0.  0.
535  5.34  0.  0.  0.
536  5.35  0.  0.  0.
537  5.36  0.  0.  0.
538  5.37  0.  0.  0.
539  5.38  0.  0.  0.
540  5.39  0.  0.  0.
541  5.40  0.  0.  0.
542  5.41  0.  0.  0.
543  5.42  0.  0.  0.
544  5.43  0.  0.  0.
545  5.44  0.  0.  0.
546  5.45  0.  0.  0.
547  5.46  0.  0.  0.
548  5.47  0.  0.  0.
549  5.48  0.  0.  0.
550  5.49  0.  0.  0.
551  5.50  0.  0.  0.
552  5.51  0.  0.  0.
553  5.52  0.  0.  0.
554  5.53  0.  0.  0.
555  5.54  0.  0.  0.
556  5.55  0.  0.  0.
557  5.56  0.  0.  0.
558  5.57  0.  0.  0.
559  5.58  0.  0.  0.
560  5.59  0.  0.  0.
561  5.60  0.  0.  0.
562  5.61  0.  0.  0.
563  5.62  0.  0.  0.
564  5.63  0.  0.  0.
565  5.64  0.  0.  0.
566  5.65  0.  0.  0.
567  5.66  0.  0.  0.
568  5.67  0.  0.  0.
569  5.68  0.  0.  0.
570  5.69  0.  0.  0.
571  5.70  0.  0.  0.
572  5.71  0.  0.  0.
573  5.72  0.  0.  0.
574  5.73  0.  0.  0.
575  5.74  0.  0.  0.
576  5.75  0.  0.  0.
577  5.76  0.  0.  0.
578  5.77  0.  0.  0.
579  5.78  0.  0.  0.
580  5.79  0.  0.  0.
581  5.80  0.  0.  0.
582  5.81  0.  0.  0.
583  5.82  0.  0.  0.
584  5.83  0.  0.  0.
585  5.84  0.  0.  0.
586  5.85  0.  0.  0.
587  5.86  0.  0.  0.
588  5.87  0.  0.  0.
589  5.88  0.  0.  0.
590  5.89  0.  0.  0.
591  5.90  0.  0.  0.
592  5.91  0.  0.  0.
593  5.92  0.  0.  0.
594  5.93  0.  0.  0.
595  5.94  0.  0.  0.
596  5.95  0.  0.  0.
597  5.96  0.  0.  0.
598  5.97  0.  0.  0.
599  5.98  0.  0.  0.
600  5.99  0.  0.  0.
1                         9.3889477451086E+00 -6.0551678071127E-01  3.6811481778054E-02
1  0.0000000000000E+00 -6.9843836270067E-10 -1.0861536330065E-08 -1.1008300965232E-08
2  1.0000000000000E-02  3.6143408803461E-03  7.7524645957433E-04 -3.9766075791581E-03
3  2.0000000000000E-02  1.4431224528173E-02  3.0977610523413E-03 -1.5848932525942E-02
4  3.0000000000000E-02  3.2372374256911E-02  6.9577338494360E-03 -3.5445133967008E-02
5  4.0000000000000E-02  5.7307797441010E-02  1.2338370608973E-02 -6.2480980142807E-02
6  5.0000000000000E-02  8.9056491288434E-02  1.9215252360318E-02 -9.6563084368895E-02
7  6.0000000000000E-02  1.2738743666590E-01  2.7555490090986E-02 -1.3719339811353E-01
8  7.0000000000000E-02  1.7202088515763E-01  3.7316723548319E-02 -1.8377492369308E-01
9  8.0000000000000E-02  2.2262994523698E-01  4.8446024029563E-02 -2.3561859807842E-01
10  9.0000000000000E-02  2.7884247358054E-01  6.0878769679453E-02 -2.9195128812878E-01
11  1.0000000000000E-01  3.4024327707704E-01  7.4537567902704E-02 -3.5192482624808E-01
12  1.1000000000000E-01  4.0637662991890E-01  8.9331302771513E-02 -4.1462600404276E-01
13  1.2000000000000E-01  4.7674910828217E-01  1.0515438559905E-01 -4.7908743013787E-01
14  1.3000000000000E-01  5.5083274249261E-01  1.2188628409138E-01 -5.4429914699528E-01
15  1.4000000000000E-01  6.2806848326544E-01  1.3939139971430E-01 -6.0922089053312E-01
16  1.5000000000000E-01  7.0786997464037E-01  1.5751935425344E-01 -6.7279486575095E-01
17  1.6000000000000E-01  7.8962762168932E-01  1.7610573523476E-01 -7.3395890163366E-01
18  1.7000000000000E-01  8.7271293604852E-01  1.9497333623272E-01 -7.9165983957823E-01
19  1.8000000000000E-01  9.5648313694350E-01  2.1393391252739E-01 -8.4486700171016E-01
20  1.9000000000000E-01  1.0402859797724E+00  2.3279045555435E-01 -8.9258557899277E-01
21  2.0000000000000E-01  1.1234647786452E+00  2.5133997165187E-01 -9.3386977424735E-01
22  2.1000000000000E-01  1.2053635837075E+00  2.6937673231799E-01 -9.6783553234316E-01
23  2.2000000000000E-01  1.2853324687778E+00  2.8669594513770E-01 -9.9367268912515E-01
24  2.3000000000000E-01  1.3627328799627E+00  3.0309777732226E-01 -1.0106563723256E+00
25  2.4000000000000E-01  1.4369429916524E+00  3.1839164800110E-01 -1.0181574919295E+00
26  2.5000000000000E-01  1.5073630127903E+00  3.3240069156852E-01 -1.0156521643546E+00
27  2.6000000000000E-01  1.5734203836949E+00  3.4496628301059E-01 -1.0027299244440E+00
28  2.7000000000000E-01  1.6345748021029E+00  3.5595250765285E-01 -9.7910059165736E-01
29  2.8000000000000E-01  1.6903230166039E+00  3.6525045252598E-01 -9.4459967194878E-01
30  2.9000000000000E-01  1.7402033263023E+00  3.7278219480056E-01 -8.9919219450258E-01
31  3.0000000000000E-01  1.7837997274240E+00  3.7850436464799E-01 -8.4297490259341E-01
32  3.1000000000000E-01  1.8207456506708E+00  3.8241116548606E-01 -7.7617674007512E-01
33  3.2000000000000E-01  1.8507272374138E+00  3.8453674379875E-01 -6.9915759907414E-01
34  3.3000000000000E-01  1.8734861082167E+00  3.8495681340115E-01 -6.1240531998756E-01
35  3.4000000000000E-01  1.8888215836359E+00  3.8378945486526E-01 -5.1653096142163E-01
36  3.5000000000000E-01  1.8965923246067E+00  3.8119502944352E-01 -4.1226238478783E-01
37  3.6000000000000E-01  1.8967173678714E+00  3.7737516774584E-01 -3.0043622537373E-01
38  3.7000000000000E-01  1.8891765406544E+00  3.7257081608693E-01 -1.8198834829752E-01
39  3.8000000000000E-01  1.8740102479618E+00  3.6705934720595E-01 -5.7942913284669E-02
40  3.9000000000000E-01  1.8513186352754E+00  3.6115076630875E-01  7.0599803867910E-02
41  4.0000000000000E-01  1.8212601388222E+00  3.5518306740598E-01  2.0247666348195E-01
42  4.1000000000000E-01  1.7840494448132E+00  3.4951681802882E-01  3.3647579901648E-01
43  4.2000000000000E-01  1.7399548878642E+00  3.4452907192140E-01  4.7135143400624E-01
44  4.3000000000000E-01  1.6892953270294E+00  3.4060672859652E-01  6.0583916139842E-01
45  4.4000000000000E-01  1.6324365453251E+00  3.3813947511861E-01  7.3867145895695E-01
46  4.5000000000000E-01  1.5697872251281E+00  3.3751245863463E-01  8.6859320963957E-01
47  4.6000000000000E-01  1.5017945572671E+00  3.3909884759486E-01  9.9437699529618E-01
48  4.7000000000000E-01  1.4289395458803E+00  3.4325244497679E-01  1.1148379357481E+00
49  4.8000000000000E-01  1.3517320741032E+00  3.5030051794947E-01  1.2288478532673E+00
50  4.9000000000000E-01  1.2707057973474E+00  3.6053700521444E-01  1.3353485545399E+00
51  5.0000000000000E-01  1.1864129313129E+00  3.7421625578495E-01  1.4333640381535E+00
52  5.1000000000000E-01  1.0994190009743E+00  3.9154744138843E-01  1.5220114551799E+00
53  5.2000000000000E-01  1.0102976146589E+00  4.1268976929636E-01  1.6005106731121E+00
54  5.3000000000000E-01  9.1962532407093E-01  4.3774860360923E-01  1.6681923188140E+00
55  5.4000000000000E-01  8.2797662684920E-01  4.6677258136212E-01  1.7245042036643E+00
56  5.5000000000000E-01  7.3591916309781E-01  4.9975178586941E-01  1.7690160631787E+00
57  5.6000000000000E-01  6.4400915148724E-01  5.3661701416161E-01  1.8014225734010E+00
58  5.7000000000000E-01  5.5278710414934E-01  5.7724014890439E-01  1.8215446366478E+00
59  5.8000000000000E-01  4.6277385288314E-01  6.2143561857582E-01  1.8293289590976E+00
60  5.9000000000000E-01  3.7446691233653E-01  6.6896290366753E-01  1.8248459715972E+00
61  6.0000000000000E-01  2.8833719902304E-01  7.1953002200593E-01  1.8082861723114E+00
62  6.1000000000000E-01  2.0482611845297E-01  7.7279790365914E-01  1.7799549948874E+00
63  6.2000000000000E-01  1.2434302647136E-01  8.2838554593994E-01  1.7402663281440E+00
64  6.3000000000000E-01  4.7263065247181E-02  8.8587582229194E-01  1.6897348324917E+00
65  6.4000000000000E-01 -2.6074630626252E-02  9.4482180581262E-01  1.6289672139964E+00
66  6.5000000000000E-01 -9.5368366687230E-02  1.0047534591670E+00  1.5586526289482E+00
67  6.6000000000000E-01 -1.6035497198985E-01  1.0651845379018E+00  1.4795523998462E+00
68  6.7000000000000E-01 -2.2081054803731E-01  1.1256195537690E+00  1.3924892277817E+00
69  6.8000000000000E-01 -2.7655089967886E-01  1.1855606485697E+00  1.2983360863515E+00
70  6.9000000000000E-01 -3.2743166525542E-01  1.2445142370474E+00  1.1980049786001E+00
71  7.0000000000000E-01 -3.7334816338939E-01  1.3019972891988E+00  1.0924357312994E+00
72  7.1000000000000E-01 -4.1423497325562E-01  1.3575431375970E+00  9.8258499045237E-01
73  7.2000000000000E-01 -4.5006526405789E-01  1.4107067134092E+00  8.6941556864121E-01
74  7.3000000000000E-01 -4.8084988790411E-01  1.4610691351241E+00  7.5388627918355E-01
75  7.4000000000000E-01 -5.0663624847288E-01  1.5082415958904E+00  6.3694237450418E-01
76  7.5000000000000E-01 -5.2750695595234E-01  1.5518685180822E+00  5.1950668721234E-01
77  7.6000000000000E-01 -5.4357827687053E-01  1.5916299664854E+00  4.0247155262393E-01
78  7.7000000000000E-01 -5.5499838578102E-01  1.6272433335975E+00  2.8669157144003E-01
79  7.8000000000000E-01 -5.6194542446563E-01  1.6584643312173E+00  1.7297725149050E-01
80  7.9000000000000E-01 -5.6462537349881E-01  1.6850873411023E+00  6.2089548378534E-02
81  8.0000000000000E-01 -5.6326974079424E-01  1.7069451933828E+00 -4.5264693059457E-02
82  8.1000000000000E-01 -5.5813307220766E-01  1.7239084541403E+00 -1.4843641093670E-01
83  8.2000000000000E-01 -5.4949029045309E-01  1.7358843126844E+00 -2.4683714112867E-01
84  8.3000000000000E-01 -5.3763387052290E-01  1.7428151643283E+00 -3.3994101614295E-01
85  8.4000000000000E-01 -5.2287086247090E-01  1.7446769857295E+00 -4.2728599967873E-01
86  8.5000000000000E-01 -5.0551977577098E-01  1.7414775971447E+00 -5.0847441640429E-01
87  8.6000000000000E-01 -4.8590734341812E-01  1.7332548993771E+00 -5.8317284207822E-01
88  8.7000000000000E-01 -4.6436518837403E-01  1.7200751630821E+00 -6.5111142252416E-01
89  8.8000000000000E-01 -4.4122641973105E-01  1.7020314348334E+00 -7.1208269130206E-01
90  8.9000000000000E-01 -4.1682219089872E-01  1.6792421085021E+00 -7.6593995540067E-01
91  9.0000000000000E-01 -3.9147825701649E-01  1.6518496926810E+00 -8.1259531619300E-01
92  9.1000000000000E-01 -3.6551157345092E-01  1.6200197858445E+00 -8.5201738952291E-01
93  9.2000000000000E-01 -3.3922698143138E-01  1.5839402514321E+00 -8.8422878446338E-01
94  9.3000000000000E-01 -3.1291403039270E-01  1.5438205659345E+00 -9.0930339531469E-01
95  9.4000000000000E-01 -2.8684398921359E-01  1.4998912951597E+00 -9.2736355611561E-01