Th    ONCVPSP-4.0.1  r_core=   1.20498   1.25651   1.20498   1.40776
90.0000     30.0000      231012    zatom,zion,pspd
8 -116133   3     4   600     0    pspcod,pspxc,lmax,lloc,mmax,r2well
5.99000000  5.00000000  0.00000000    rchrg fchrg qchrg
3     2     2     2     0    nproj
1     1           extension_switch
0                         4.1378294970596E+01  4.1246379736647E+00 -1.0351090663819E+00
1  0.0000000000000E+00 -1.3838860657422E-07  3.8863482998419E-07  1.5284810500615E-08
2  1.0000000000000E-02  1.6467191159065E-01 -1.0661219892353E-01  1.6892839498161E-02
3  2.0000000000000E-02  3.2779108347320E-01 -2.1029407946956E-01  3.3786784370905E-02
4  3.0000000000000E-02  4.8783838308427E-01 -3.0820335907883E-01  5.0680060243896E-02
5  4.0000000000000E-02  6.4336081652402E-01 -3.9767082520688E-01  6.7565256750757E-02
6  5.0000000000000E-02  7.9300194675485E-01 -4.7627947277624E-01  8.4426814157565E-02
7  6.0000000000000E-02  9.3552923528596E-01 -5.4193505894090E-01  1.0123886406043E-01
8  7.0000000000000E-02  1.0698574525415E+00 -5.9292569358254E-01  1.1796352345193E-01
9  8.0000000000000E-02  1.1950674404989E+00 -6.2796847259283E-01  1.3454972616736E-01
10  9.0000000000000E-02  1.3104196745983E+00 -6.4624161997696E-01  1.5093265754767E-01
11  1.0000000000000E-01  1.4153622544938E+00 -6.4740111768838E-01  1.6703383767017E-01
12  1.1000000000000E-01  1.5095331483866E+00 -6.3158135050449E-01  1.8276187635246E-01
13  1.2000000000000E-01  1.5927567164438E+00 -5.9937985752727E-01  1.9801390003411E-01
14  1.3000000000000E-01  1.6650347379577E+00 -5.5182684184525E-01  2.1267762732177E-01
15  1.4000000000000E-01  1.7265323573012E+00 -4.9034062547676E-01  2.2663404718871E-01
16  1.5000000000000E-01  1.7775595385610E+00 -4.1667072877957E-01  2.3976063228122E-01
17  1.6000000000000E-01  1.8185487717235E+00 -3.3283068447416E-01  2.5193500018888E-01
18  1.7000000000000E-01  1.8500298989919E+00 -2.4102305091721E-01  2.6303891851708E-01
19  1.8000000000000E-01  1.8726030237348E+00 -1.4355935464612E-01  2.7296253570748E-01
20  1.9000000000000E-01  1.8869105234028E+00 -4.2777859113106E-02  2.8160870923872E-01
21  2.0000000000000E-01  1.8936092094200E+00  5.9037880946675E-02  2.8889729644978E-01
22  2.1000000000000E-01  1.8933436608670E+00  1.5973676398718E-01  2.9476927098024E-01
23  2.2000000000000E-01  1.8867217053750E+00  2.5737141808110E-01  2.9919052980817E-01
24  2.3000000000000E-01  1.8742929320394E+00  3.5026049027697E-01  3.0215526204681E-01
25  2.4000000000000E-01  1.8565310006305E+00  4.3703976784402E-01  3.0368876086510E-01
26  2.5000000000000E-01  1.8338203633448E+00  5.1670036617196E-01  3.0384957382856E-01
27  2.6000000000000E-01  1.8064478452270E+00  5.8861269660713E-01  3.0273090420538E-01
28  2.7000000000000E-01  1.7745993434386E+00  6.5253545135534E-01  3.0046119583350E-01
29  2.8000000000000E-01  1.7383617105177E+00  7.0860939280051E-01  2.9720385639747E-01
30  2.9000000000000E-01  1.6977296898101E+00  7.5733629123948E-01  2.9315609775078E-01
31  3.0000000000000E-01  1.6526175795206E+00  7.9954389799868E-01  2.8854689652501E-01
32  3.1000000000000E-01  1.6028751223333E+00  8.3633835055715E-01  2.8363410295149E-01
33  3.2000000000000E-01  1.5483069568137E+00  8.6904586426393E-01  2.7870074984360E-01
34  3.3000000000000E-01  1.4886948307009E+00  8.9914595500078E-01  2.7405063632766E-01
35  3.4000000000000E-01  1.4238216696700E+00  9.2819874468280E-01  2.7000328149251E-01
36  3.5000000000000E-01  1.3534965220797E+00  9.5776911579751E-01  2.6688836104011E-01
37  3.6000000000000E-01  1.2775793632764E+00  9.8935059460775E-01  2.6503975473422E-01
38  3.7000000000000E-01  1.1960047435453E+00  1.0242918512197E+00  2.6478934353234E-01
39  3.8000000000000E-01  1.1088033017694E+00  1.0637286082761E+00  2.6646070243113E-01
40  3.9000000000000E-01  1.0161202408868E+00  1.1085235522079E+00  2.7036283806263E-01
41  4.0000000000000E-01  9.1822996864384E-01  1.1592165490797E+00  2.7678411887929E-01
42  4.1000000000000E-01  8.1554624401116E-01  1.2159870917924E+00  2.8598654042067E-01
43  4.2000000000000E-01  7.0862733099773E-01  1.2786304604797E+00  2.9820045885005E-01
44  4.3000000000000E-01  5.9817584159258E-01  1.3465485795584E+00  3.1361991298951E-01
45  4.4000000000000E-01  4.8503314166275E-01  1.4187560211954E+00  3.3239863888274E-01
46  4.5000000000000E-01  3.7016839086685E-01  1.4939010552954E+00  3.5464686198458E-01
47  4.6000000000000E-01  2.5466248286435E-01  1.5703011003989E+00  3.8042893100425E-01
48  4.7000000000000E-01  1.3968733825437E-01  1.6459914078119E+00  4.0976183486288E-01
49  4.8000000000000E-01  2.6481173034869E-02  1.7187853316968E+00  4.4261462085494E-01
50  4.9000000000000E-01 -8.3679486184536E-02  1.7863441178977E+00  4.7890870862870E-01
51  5.0000000000000E-01 -1.8951014779833E-01  1.8462537990051E+00  5.1851907172830E-01
52  5.1000000000000E-01 -2.8975007961339E-01  1.8961065247668E+00  5.6127623683838E-01
53  5.2000000000000E-01 -3.8319437513735E-01  1.9335834944907E+00  6.0696903117182E-01
54  5.3000000000000E-01 -4.6872530659157E-01  1.9565365970677E+00  6.5534799119867E-01
55  5.4000000000000E-01 -5.4534192844511E-01  1.9630659064765E+00  7.0612933160892E-01
56  5.5000000000000E-01 -6.1218695062665E-01  1.9515903241923E+00  7.5899936241029E-01
57  5.6000000000000E-01 -6.6856999022367E-01  1.9209088991525E+00  8.1361923465594E-01
58  5.7000000000000E-01 -7.1398643109391E-01  1.8702506818188E+00  8.6962989163044E-01
59  5.8000000000000E-01 -7.4813126792987E-01  1.7993113691998E+00  9.2665710243020E-01
60  5.9000000000000E-01 -7.7090747956303E-01  1.7082754577104E+00  9.8431645867274E-01
61  6.0000000000000E-01 -7.8242865954116E-01  1.5978231235375E+00  1.0422182223592E+00
62  6.1000000000000E-01 -7.8301582364011E-01  1.4691215774513E+00  1.0999719233879E+00
63  6.2000000000000E-01 -7.7318850710037E-01  1.3238011736758E+00  1.1571906184708E+00
64  6.3000000000000E-01 -7.5365045212933E-01  1.1639170713920E+00  1.2134947387546E+00
65  6.4000000000000E-01 -7.2527036194380E-01  9.9189773421212E-01  1.2685154707378E+00
66  6.5000000000000E-01 -6.8905835522613E-01  8.1048199043721E-01  1.3218976335114E+00
67  6.6000000000000E-01 -6.4613888890189E-01  6.2264674989647E-01  1.3733020342934E+00
68  6.7000000000000E-01 -5.9772102313079E-01  4.3152776902913E-01  1.4224073030592E+00
69  6.8000000000000E-01 -5.4506697689956E-01  2.4033606488321E-01  1.4689112251457E+00
70  6.9000000000000E-01 -4.8945996338563E-01  5.2272694461013E-02  1.5125316074562E+00
71  7.0000000000000E-01 -4.3217230034723E-01 -1.2955536459037E-01  1.5530067287635E+00
72  7.1000000000000E-01 -3.7443476249215E-01 -3.0221557195265E-01  1.5900954371332E+00
73  7.2000000000000E-01 -3.1740808166190E-01 -4.6302392869763E-01  1.6235769672813E+00
74  7.3000000000000E-01 -2.6215740948360E-01 -6.0961058627178E-01  1.6532505574360E+00
75  7.4000000000000E-01 -2.0963043969989E-01 -7.3997504424596E-01  1.6789349488088E+00
76  7.5000000000000E-01 -1.6063974843150E-01 -8.5252940624793E-01  1.7004678510001E+00
77  7.6000000000000E-01 -1.1584975557197E-01 -9.4612859472024E-01  1.7177054535979E+00
78  7.7000000000000E-01 -7.5768545317698E-02 -1.0200868855450E+00  1.7305220580000E+00
79  7.8000000000000E-01 -4.0744614698498E-02 -1.0741805959529E+00  1.7388098943335E+00
80  7.9000000000000E-01 -1.0968452128779E-02 -1.1086372261536E+00  1.7424791765863E+00
81  8.0000000000000E-01  1.3521310547641E-02 -1.1241118000235E+00  1.7414584351099E+00
82  8.1000000000000E-01  3.2827573700553E-02 -1.1216515573169E+00  1.7356951499776E+00
83  8.2000000000000E-01  4.7180800275090E-02 -1.1026505053923E+00  1.7251566918226E+00
84  8.3000000000000E-01  5.6922030841280E-02 -1.0687956307676E+00  1.7098315592968E+00
85  8.4000000000000E-01  6.2483590197044E-02 -1.0220067909728E+00  1.6897308847789E+00
86  8.5000000000000E-01  6.4368241193835E-02 -9.6437244918822E-01  1.6648901630041E+00
87  8.6000000000000E-01  6.3127561235896E-02 -8.9808347515878E-01  1.6353711414634E+00
88  8.7000000000000E-01  5.9340307890752E-02 -8.2536721616814E-01  1.6012637972679E+00
89  8.8000000000000E-01  5.3591503569403E-02 -7.4842394483636E-01  1.5626883131897E+00
90  8.9000000000000E-01  4.6452907657945E-02 -6.6936762243080E-01  1.5197969562047E+00
91  9.0000000000000E-01  3.8465461086966E-02 -5.9017268608870E-01  1.4727757554382E+00
92  9.1000000000000E-01  3.0124187149421E-02 -5.1262828680425E-01  1.4218458732313E+00
93  9.2000000000000E-01  2.1865918042181E-02 -4.3830108485641E-01  1.3672645632948E+00
94  9.3000000000000E-01  1.4060094086794E-02 -3.6850736420757E-01  1.3093256137061E+00
95  9.4000000000000E-01  7.0027570431645E-03 -3.0429487152028E-01  1.2483591798420E+00
96  9.5000000000000E-01  9.1373541149994E-04 -2.4643443279065E-01  1.1847309231494E+00
97  9.6000000000000E-01 -4.0630970716195E-03 -1.9542106455130E-01  1.1188403857884E+00
98  9.7000000000000E-01 -7.8567140903987E-03 -1.5148398920857E-01  1.0511185483862E+00
99  9.8000000000000E-01 -1.0463295712089E-02 -1.1460469552890E-01  9.8202453813602E-01
100  9.9000000000000E-01 -1.1938442010731E-02 -8.4541963731351E-02  9.1204147687539E-01
101  1.0000000000000E+00 -1.2387683502847E-02 -6.0862605353210E-02  8.4167148321917E-01
102  1.0100000000000E+00 -1.1955763983690E-02 -4.2976554018176E-02  7.7142986883566E-01
103  1.0200000000000E+00 -1.0815184711941E-02 -3.0174884041337E-02  7.0183859610139E-01
104  1.0300000000000E+00 -9.1544933947722E-03 -2.1669326460575E-02  6.3341909219654E-01
105  1.0400000000000E+00 -7.1667793090184E-03 -1.6631890811632E-02  5.6668454276507E-01
106  1.0500000000000E+00 -5.0388004261431E-03 -1.4233277164835E-02  5.0213181608589E-01
107  1.0600000000000E+00 -2.9411235027564E-03 -1.3678866146439E-02  4.4023319594265E-01
108  1.0700000000000E+00 -1.0196084524054E-03 -1.4241192300618E-02  3.8142812763584E-01
109  1.0800000000000E+00  6.1148081094679E-04 -1.5287924042699E-02  3.2611520649220E-01
110  1.0900000000000E+00  1.8745002387349E-03 -1.6304477378687E-02  2.7464466164699E-01
111  1.1000000000000E+00  2.7313770943086E-03 -1.6910464532710E-02  2.2731160940746E-01
112  1.1100000000000E+00  3.1842966490138E-03 -1.6869208329931E-02  1.8435037017645E-01
113  1.1200000000000E+00  3.2739241748620E-03 -1.6089523616439E-02  1.4593016047939E-01
114  1.1300000000000E+00  3.0747486061899E-03 -1.4618410775601E-02  1.1215243606460E-01
115  1.1400000000000E+00  2.6887772229960E-03 -1.2627454361389E-02  8.3050661055520E-02
116  1.1500000000000E+00  2.1710475381100E-03 -1.0223135643131E-02  5.8573822991730E-02
117  1.1600000000000E+00  1.4050884926022E-03 -7.1244602835433E-03  3.8558626706066E-02
118  1.1700000000000E+00  6.5759386509132E-04 -4.0719704716660E-03  2.2903189444223E-02
119  1.1800000000000E+00  1.4245503787556E-04 -1.7116334737067E-03  1.1461264936962E-02
120  1.1900000000000E+00 -5.7160787075194E-05 -3.8131641432310E-04  4.0443507679626E-03
121  1.2000000000000E+00 -2.4984185954488E-05 -2.5794430836554E-06  4.6723279298434E-04
122  1.2100000000000E+00  2.3635502366791E-06 -1.7217952475946E-06 -2.8704575718414E-05
123  1.2200000000000E+00  2.7410035483632E-08  1.7939129359481E-08 -6.2849650227926E-07
124  1.23 -0.  0. -0.
125  1.24  0.  0.  0.
126  1.25  0.  0.  0.
127  1.26  0.  0.  0.
128  1.27  0.  0.  0.
129  1.28  0.  0.  0.
130  1.29  0.  0.  0.
131  1.30  0.  0.  0.
132  1.31  0.  0.  0.
133  1.32  0.  0.  0.
134  1.33  0.  0.  0.
135  1.34  0.  0.  0.
136  1.35  0.  0.  0.
137  1.36  0.  0.  0.
138  1.37  0.  0.  0.
139  1.38  0.  0.  0.
140  1.39  0.  0.  0.
141  1.40  0.  0.  0.
142  1.41  0.  0.  0.
143  1.42  0.  0.  0.
144  1.43  0.  0.  0.
145  1.44  0.  0.  0.
146  1.45  0.  0.  0.
147  1.46  0.  0.  0.
148  1.47  0.  0.  0.
149  1.48  0.  0.  0.
150  1.49  0.  0.  0.
151  1.50  0.  0.  0.
152  1.51  0.  0.  0.
153  1.52  0.  0.  0.
154  1.53  0.  0.  0.
155  1.54  0.  0.  0.
156  1.55  0.  0.  0.
157  1.56  0.  0.  0.
158  1.57  0.  0.  0.
159  1.58  0.  0.  0.
160  1.59  0.  0.  0.
161  1.60  0.  0.  0.
162  1.61  0.  0.  0.
163  1.62  0.  0.  0.
164  1.63  0.  0.  0.
165  1.64  0.  0.  0.
166  1.65  0.  0.  0.
167  1.66  0.  0.  0.
168  1.67  0.  0.  0.
169  1.68  0.  0.  0.
170  1.69  0.  0.  0.
171  1.70  0.  0.  0.
172  1.71  0.  0.  0.
173  1.72  0.  0.  0.
174  1.73  0.  0.  0.
175  1.74  0.  0.  0.
176  1.75  0.  0.  0.
177  1.76  0.  0.  0.
178  1.77  0.  0.  0.
179  1.78  0.  0.  0.
180  1.79  0.  0.  0.
181  1.80  0.  0.  0.
182  1.81  0.  0.  0.
183  1.82  0.  0.  0.
184  1.83  0.  0.  0.
185  1.84  0.  0.  0.
186  1.85  0.  0.  0.
187  1.86  0.  0.  0.
188  1.87  0.  0.  0.
189  1.88  0.  0.  0.
190  1.89  0.  0.  0.
191  1.90  0.  0.  0.
192  1.91  0.  0.  0.
193  1.92  0.  0.  0.
194  1.93  0.  0.  0.
195  1.94  0.  0.  0.
196  1.95  0.  0.  0.
197  1.96  0.  0.  0.
198  1.97  0.  0.  0.
199  1.98  0.  0.  0.
200  1.99  0.  0.  0.
201  2.00  0.  0.  0.
202  2.01  0.  0.  0.
203  2.02  0.  0.  0.
204  2.03  0.  0.  0.
205  2.04  0.  0.  0.
206  2.05  0.  0.  0.
207  2.06  0.  0.  0.
208  2.07  0.  0.  0.
209  2.08  0.  0.  0.
210  2.09  0.  0.  0.
211  2.10  0.  0.  0.
212  2.11  0.  0.  0.
213  2.12  0.  0.  0.
214  2.13  0.  0.  0.
215  2.14  0.  0.  0.
216  2.15  0.  0.  0.
217  2.16  0.  0.  0.
218  2.17  0.  0.  0.
219  2.18  0.  0.  0.
220  2.19  0.  0.  0.
221  2.20  0.  0.  0.
222  2.21  0.  0.  0.
223  2.22  0.  0.  0.
224  2.23  0.  0.  0.
225  2.24  0.  0.  0.
226  2.25  0.  0.  0.
227  2.26  0.  0.  0.
228  2.27  0.  0.  0.
229  2.28  0.  0.  0.
230  2.29  0.  0.  0.
231  2.30  0.  0.  0.
232  2.31  0.  0.  0.
233  2.32  0.  0.  0.
234  2.33  0.  0.  0.
235  2.34  0.  0.  0.
236  2.35  0.  0.  0.
237  2.36  0.  0.  0.
238  2.37  0.  0.  0.
239  2.38  0.  0.  0.
240  2.39  0.  0.  0.
241  2.40  0.  0.  0.
242  2.41  0.  0.  0.
243  2.42  0.  0.  0.
244  2.43  0.  0.  0.
245  2.44  0.  0.  0.
246  2.45  0.  0.  0.
247  2.46  0.  0.  0.
248  2.47  0.  0.  0.
249  2.48  0.  0.  0.
250  2.49  0.  0.  0.
251  2.50  0.  0.  0.
252  2.51  0.  0.  0.
253  2.52  0.  0.  0.
254  2.53  0.  0.  0.
255  2.54  0.  0.  0.
256  2.55  0.  0.  0.
257  2.56  0.  0.  0.
258  2.57  0.  0.  0.
259  2.58  0.  0.  0.
260  2.59  0.  0.  0.
261  2.60  0.  0.  0.
262  2.61  0.  0.  0.
263  2.62  0.  0.  0.
264  2.63  0.  0.  0.
265  2.64  0.  0.  0.
266  2.65  0.  0.  0.
267  2.66  0.  0.  0.
268  2.67  0.  0.  0.
269  2.68  0.  0.  0.
270  2.69  0.  0.  0.
271  2.70  0.  0.  0.
272  2.71  0.  0.  0.
273  2.72  0.  0.  0.
274  2.73  0.  0.  0.
275  2.74  0.  0.  0.
276  2.75  0.  0.  0.
277  2.76  0.  0.  0.
278  2.77  0.  0.  0.
279  2.78  0.  0.  0.
280  2.79  0.  0.  0.
281  2.80  0.  0.  0.
282  2.81  0.  0.  0.
283  2.82  0.  0.  0.
284  2.83  0.  0.  0.
285  2.84  0.  0.  0.
286  2.85  0.  0.  0.
287  2.86  0.  0.  0.
288  2.87  0.  0.  0.
289  2.88  0.  0.  0.
290  2.89  0.  0.  0.
291  2.90  0.  0.  0.
292  2.91  0.  0.  0.
293  2.92  0.  0.  0.
294  2.93  0.  0.  0.
295  2.94  0.  0.  0.
296  2.95  0.  0.  0.
297  2.96  0.  0.  0.
298  2.97  0.  0.  0.
299  2.98  0.  0.  0.
300  2.99  0.  0.  0.
301  3.00  0.  0.  0.
302  3.01  0.  0.  0.
303  3.02  0.  0.  0.
304  3.03  0.  0.  0.
305  3.04  0.  0.  0.
306  3.05  0.  0.  0.
307  3.06  0.  0.  0.
308  3.07  0.  0.  0.
309  3.08  0.  0.  0.
310  3.09  0.  0.  0.
311  3.10  0.  0.  0.
312  3.11  0.  0.  0.
313  3.12  0.  0.  0.
314  3.13  0.  0.  0.
315  3.14  0.  0.  0.
316  3.15  0.  0.  0.
317  3.16  0.  0.  0.
318  3.17  0.  0.  0.
319  3.18  0.  0.  0.
320  3.19  0.  0.  0.
321  3.20  0.  0.  0.
322  3.21  0.  0.  0.
323  3.22  0.  0.  0.
324  3.23  0.  0.  0.
325  3.24  0.  0.  0.
326  3.25  0.  0.  0.
327  3.26  0.  0.  0.
328  3.27  0.  0.  0.
329  3.28  0.  0.  0.
330  3.29  0.  0.  0.
331  3.30  0.  0.  0.
332  3.31  0.  0.  0.
333  3.32  0.  0.  0.
334  3.33  0.  0.  0.
335  3.34  0.  0.  0.
336  3.35  0.  0.  0.
337  3.36  0.  0.  0.
338  3.37  0.  0.  0.
339  3.38  0.  0.  0.
340  3.39  0.  0.  0.
341  3.40  0.  0.  0.
342  3.41  0.  0.  0.
343  3.42  0.  0.  0.
344  3.43  0.  0.  0.
345  3.44  0.  0.  0.
346  3.45  0.  0.  0.
347  3.46  0.  0.  0.
348  3.47  0.  0.  0.
349  3.48  0.  0.  0.
350  3.49  0.  0.  0.
351  3.50  0.  0.  0.
352  3.51  0.  0.  0.
353  3.52  0.  0.  0.
354  3.53  0.  0.  0.
355  3.54  0.  0.  0.
356  3.55  0.  0.  0.
357  3.56  0.  0.  0.
358  3.57  0.  0.  0.
359  3.58  0.  0.  0.
360  3.59  0.  0.  0.
361  3.60  0.  0.  0.
362  3.61  0.  0.  0.
363  3.62  0.  0.  0.
364  3.63  0.  0.  0.
365  3.64  0.  0.  0.
366  3.65  0.  0.  0.
367  3.66  0.  0.  0.
368  3.67  0.  0.  0.
369  3.68  0.  0.  0.
370  3.69  0.  0.  0.
371  3.70  0.  0.  0.
372  3.71  0.  0.  0.
373  3.72  0.  0.  0.
374  3.73  0.  0.  0.
375  3.74  0.  0.  0.
376  3.75  0.  0.  0.
377  3.76  0.  0.  0.
378  3.77  0.  0.  0.
379  3.78  0.  0.  0.
380  3.79  0.  0.  0.
381  3.80  0.  0.  0.
382  3.81  0.  0.  0.
383  3.82  0.  0.  0.
384  3.83  0.  0.  0.
385  3.84  0.  0.  0.
386  3.85  0.  0.  0.
387  3.86  0.  0.  0.
388  3.87  0.  0.  0.
389  3.88  0.  0.  0.
390  3.89  0.  0.  0.
391  3.90  0.  0.  0.
392  3.91  0.  0.  0.
393  3.92  0.  0.  0.
394  3.93  0.  0.  0.
395  3.94  0.  0.  0.
396  3.95  0.  0.  0.
397  3.96  0.  0.  0.
398  3.97  0.  0.  0.
399  3.98  0.  0.  0.
400  3.99  0.  0.  0.
401  4.00  0.  0.  0.
402  4.01  0.  0.  0.
403  4.02  0.  0.  0.
404  4.03  0.  0.  0.
405  4.04  0.  0.  0.
406  4.05  0.  0.  0.
407  4.06  0.  0.  0.
408  4.07  0.  0.  0.
409  4.08  0.  0.  0.
410  4.09  0.  0.  0.
411  4.10  0.  0.  0.
412  4.11  0.  0.  0.
413  4.12  0.  0.  0.
414  4.13  0.  0.  0.
415  4.14  0.  0.  0.
416  4.15  0.  0.  0.
417  4.16  0.  0.  0.
418  4.17  0.  0.  0.
419  4.18  0.  0.  0.
420  4.19  0.  0.  0.
421  4.20  0.  0.  0.
422  4.21  0.  0.  0.
423  4.22  0.  0.  0.
424  4.23  0.  0.  0.
425  4.24  0.  0.  0.
426  4.25  0.  0.  0.
427  4.26  0.  0.  0.
428  4.27  0.  0.  0.
429  4.28  0.  0.  0.
430  4.29  0.  0.  0.
431  4.30  0.  0.  0.
432  4.31  0.  0.  0.
433  4.32  0.  0.  0.
434  4.33  0.  0.  0.
435  4.34  0.  0.  0.
436  4.35  0.  0.  0.
437  4.36  0.  0.  0.
438  4.37  0.  0.  0.
439  4.38  0.  0.  0.
440  4.39  0.  0.  0.
441  4.40  0.  0.  0.
442  4.41  0.  0.  0.
443  4.42  0.  0.  0.
444  4.43  0.  0.  0.
445  4.44  0.  0.  0.
446  4.45  0.  0.  0.
447  4.46  0.  0.  0.
448  4.47  0.  0.  0.
449  4.48  0.  0.  0.
450  4.49  0.  0.  0.
451  4.50  0.  0.  0.
452  4.51  0.  0.  0.
453  4.52  0.  0.  0.
454  4.53  0.  0.  0.
455  4.54  0.  0.  0.
456  4.55  0.  0.  0.
457  4.56  0.  0.  0.
458  4.57  0.  0.  0.
459  4.58  0.  0.  0.
460  4.59  0.  0.  0.
461  4.60  0.  0.  0.
462  4.61  0.  0.  0.
463  4.62  0.  0.  0.
464  4.63  0.  0.  0.
465  4.64  0.  0.  0.
466  4.65  0.  0.  0.
467  4.66  0.  0.  0.
468  4.67  0.  0.  0.
469  4.68  0.  0.  0.
470  4.69  0.  0.  0.
471  4.70  0.  0.  0.
472  4.71  0.  0.  0.
473  4.72  0.  0.  0.
474  4.73  0.  0.  0.
475  4.74  0.  0.  0.
476  4.75  0.  0.  0.
477  4.76  0.  0.  0.
478  4.77  0.  0.  0.
479  4.78  0.  0.  0.
480  4.79  0.  0.  0.
481  4.80  0.  0.  0.
482  4.81  0.  0.  0.
483  4.82  0.  0.  0.
484  4.83  0.  0.  0.
485  4.84  0.  0.  0.
486  4.85  0.  0.  0.
487  4.86  0.  0.  0.
488  4.87  0.  0.  0.
489  4.88  0.  0.  0.
490  4.89  0.  0.  0.
491  4.90  0.  0.  0.
492  4.91  0.  0.  0.
493  4.92  0.  0.  0.
494  4.93  0.  0.  0.
495  4.94  0.  0.  0.
496  4.95  0.  0.  0.
497  4.96  0.  0.  0.
498  4.97  0.  0.  0.
499  4.98  0.  0.  0.
500  4.99  0.  0.  0.
501  5.00  0.  0.  0.
502  5.01  0.  0.  0.
503  5.02  0.  0.  0.
504  5.03  0.  0.  0.
505  5.04  0.  0.  0.
506  5.05  0.  0.  0.
507  5.06  0.  0.  0.
508  5.07  0.  0.  0.
509  5.08  0.  0.  0.
510  5.09  0.  0.  0.
511  5.10  0.  0.  0.
512  5.11  0.  0.  0.
513  5.12  0.  0.  0.
514  5.13  0.  0.  0.
515  5.14  0.  0.  0.
516  5.15  0.  0.  0.
517  5.16  0.  0.  0.
518  5.17  0.  0.  0.
519  5.18  0.  0.  0.
520  5.19  0.  0.  0.
521  5.20  0.  0.  0.
522  5.21  0.  0.  0.
523  5.22  0.  0.  0.
524  5.23  0.  0.  0.
525  5.24  0.  0.  0.
526  5.25  0.  0.  0.
527  5.26  0.  0.  0.
528  5.27  0.  0.  0.
529  5.28  0.  0.  0.
530  5.29  0.  0.  0.
531  5.30  0.  0.  0.
532  5.31  0.  0.  0.
533  5.32  0.  0.  0.
534  5.33  0.  0.  0.
535  5.34  0.  0.  0.
536  5.35  0.  0.  0.
537  5.36  0.  0.  0.
538  5.37  0.  0.  0.
539  5.38  0.  0.  0.
540  5.39  0.  0.  0.
541  5.40  0.  0.  0.
542  5.41  0.  0.  0.
543  5.42  0.  0.  0.
544  5.43  0.  0.  0.
545  5.44  0.  0.  0.
546  5.45  0.  0.  0.
547  5.46  0.  0.  0.
548  5.47  0.  0.  0.
549  5.48  0.  0.  0.
550  5.49  0.  0.  0.
551  5.50  0.  0.  0.
552  5.51  0.  0.  0.
553  5.52  0.  0.  0.
554  5.53  0.  0.  0.
555  5.54  0.  0.  0.
556  5.55  0.  0.  0.
557  5.56  0.  0.  0.
558  5.57  0.  0.  0.
559  5.58  0.  0.  0.
560  5.59  0.  0.  0.
561  5.60  0.  0.  0.
562  5.61  0.  0.  0.
563  5.62  0.  0.  0.
564  5.63  0.  0.  0.
565  5.64  0.  0.  0.
566  5.65  0.  0.  0.
567  5.66  0.  0.  0.
568  5.67  0.  0.  0.
569  5.68  0.  0.  0.
570  5.69  0.  0.  0.
571  5.70  0.  0.  0.
572  5.71  0.  0.  0.
573  5.72  0.  0.  0.
574  5.73  0.  0.  0.
575  5.74  0.  0.  0.
576  5.75  0.  0.  0.
577  5.76  0.  0.  0.
578  5.77  0.  0.  0.
579  5.78  0.  0.  0.
580  5.79  0.  0.  0.
581  5.80  0.  0.  0.
582  5.81  0.  0.  0.
583  5.82  0.  0.  0.
584  5.83  0.  0.  0.
585  5.84  0.  0.  0.
586  5.85  0.  0.  0.
587  5.86  0.  0.  0.
588  5.87  0.  0.  0.
589  5.88  0.  0.  0.
590  5.89  0.  0.  0.
591  5.90  0.  0.  0.
592  5.91  0.  0.  0.
593  5.92  0.  0.  0.
594  5.93  0.  0.  0.
595  5.94  0.  0.  0.
596  5.95  0.  0.  0.
597  5.96  0.  0.  0.
598  5.97  0.  0.  0.
599  5.98  0.  0.  0.
600  5.99  0.  0.  0.
1                         9.7325264963758E+00 -5.8933417798068E-01
1  0.0000000000000E+00 -7.5117478903763E-10 -1.1692787009465E-08
2  1.0000000000000E-02  3.5951379694641E-03  7.8649058932701E-04
3  2.0000000000000E-02  1.4354695502072E-02  3.1429637326771E-03
4  3.0000000000000E-02  3.2201240602685E-02  7.0602724121947E-03
5  4.0000000000000E-02  5.7006177953902E-02  1.2522675871990E-02
6  5.0000000000000E-02  8.8590439010902E-02  1.9507124041758E-02
7  6.0000000000000E-02  1.2672545405593E-01  2.7982310715105E-02
8  7.0000000000000E-02  1.7113441157237E-01  3.7907548073937E-02
9  8.0000000000000E-02  2.2149381104959E-01  4.9231526843071E-02
10  9.0000000000000E-02  2.7743531553388E-01  6.1891035700579E-02
11  1.0000000000000E-01  3.3854790981760E-01  7.5809720195975E-02
12  1.1000000000000E-01  4.0438036904957E-01  9.0896965064883E-02
13  1.2000000000000E-01  4.7444404072236E-01  1.0704698429761E-01
14  1.3000000000000E-01  5.4821594043932E-01  1.2413820054485E-01
15  1.4000000000000E-01  6.2514215860684E-01  1.4203298946023E-01
16  1.5000000000000E-01  7.0464157128348E-01  1.6057785552345E-01
17  1.6000000000000E-01  7.8610984392078E-01  1.7960409400352E-01
18  1.7000000000000E-01  8.6892371174949E-01  1.9892897934566E-01
19  1.8000000000000E-01  9.5244551521961E-01  2.1835750382339E-01
20  1.9000000000000E-01  1.0360279633309E+00  2.3768467228910E-01
21  2.0000000000000E-01  1.1190190920461E+00  2.5669833983923E-01
22  2.1000000000000E-01  1.2007673794246E+00  2.7518255978533E-01
23  2.2000000000000E-01  1.2806269738166E+00  2.9292139011561E-01
24  2.3000000000000E-01  1.3579629865860E+00  3.0970308827070E-01
25  2.4000000000000E-01  1.4321567965485E+00  3.2532460715947E-01
26  2.5000000000000E-01  1.5026113097679E+00  3.3959629048421E-01
27  2.6000000000000E-01  1.5687561156903E+00  3.5234665315926E-01
28  2.7000000000000E-01  1.6300524789315E+00  3.6342712334920E-01
29  2.8000000000000E-01  1.6859981054538E+00  3.7271661679681E-01
30  2.9000000000000E-01  1.7361316224562E+00  3.8012581193107E-01
31  3.0000000000000E-01  1.7800367130785E+00  3.8560099590906E-01
32  3.1000000000000E-01  1.8173458500075E+00  3.8912735730650E-01
33  3.2000000000000E-01  1.8477435762364E+00  3.9073161056372E-01
34  3.3000000000000E-01  1.8709692865141E+00  3.9048385033552E-01
35  3.4000000000000E-01  1.8868194693440E+00  3.8849855028827E-01
36  3.5000000000000E-01  1.8951493766291E+00  3.8493464023212E-01
37  3.6000000000000E-01  1.8958740960758E+00  3.7999461727326E-01
38  3.7000000000000E-01  1.8889690100919E+00  3.7392267033869E-01
39  3.8000000000000E-01  1.8744696339688E+00  3.6700182231847E-01
40  3.9000000000000E-01  1.8524708354139E+00  3.5955011949372E-01
41  4.0000000000000E-01  1.8231254468137E+00  3.5191592315281E-01
42  4.1000000000000E-01  1.7866422907280E+00  3.4447238261659E-01
43  4.2000000000000E-01  1.7432836478630E+00  3.3761119158688E-01
44  4.3000000000000E-01  1.6933622049329E+00  3.3173575012775E-01
45  4.4000000000000E-01  1.6372375272264E+00  3.2725387207387E-01
46  4.5000000000000E-01  1.5753121071843E+00  3.2457019169642E-01
47  4.6000000000000E-01  1.5080270457294E+00  3.2407843360452E-01
48  4.7000000000000E-01  1.4358574273624E+00  3.2615371578470E-01
49  4.8000000000000E-01  1.3593074530766E+00  3.3114505717086E-01
50  4.9000000000000E-01  1.2789053968934E+00  3.3936825810542E-01
51  5.0000000000000E-01  1.1951984522852E+00  3.5109931454734E-01
52  5.1000000000000E-01  1.1087475339429E+00  3.6656851508078E-01
53  5.2000000000000E-01  1.0201220983291E+00  3.8595535398338E-01
54  5.3000000000000E-01  9.2989504331862E-01  4.0938437425271E-01
55  5.4000000000000E-01  8.3863774308273E-01  4.3692203209048E-01
56  5.5000000000000E-01  7.4691526936719E-01  4.6857464953358E-01
57  5.6000000000000E-01  6.5528184460462E-01  5.0428749539474E-01
58  5.7000000000000E-01  5.6427656606756E-01  5.4394500718363E-01
59  5.8000000000000E-01  4.7441943369478E-01  5.8737213900456E-01
60  5.9000000000000E-01  3.8620770750012E-01  6.3433679335572E-01
61  6.0000000000000E-01  3.0011261378527E-01  6.8455326905973E-01
62  6.1000000000000E-01  2.1657641290555E-01  7.3768663396684E-01
63  6.2000000000000E-01  1.3600983524409E-01  7.9335791025514E-01
64  6.3000000000000E-01  5.8789886479864E-02  8.5114994269308E-01
65  6.4000000000000E-01 -1.4741981688782E-02  9.1061380660323E-01
66  6.5000000000000E-01 -8.4281343387512E-02  9.7127560284000E-01
67  6.6000000000000E-01 -1.4956192437803E-01  1.0326434820947E+00
68  6.7000000000000E-01 -2.1035639578246E-01  1.0942147403681E+00
69  6.8000000000000E-01 -2.6647685136769E-01  1.1554828314538E+00
70  6.9000000000000E-01 -3.1777498493467E-01  1.2159441505736E+00
71  7.0000000000000E-01 -3.6414198450941E-01  1.2751044555752E+00
72  7.1000000000000E-01 -4.0550815952834E-01  1.3324848079000E+00
73  7.2000000000000E-01 -4.4184231616335E-01  1.3876269343077E+00
74  7.3000000000000E-01 -4.7315089447376E-01  1.4400979314437E+00
75  7.4000000000000E-01 -4.9947687935113E-01  1.4894942580540E+00
76  7.5000000000000E-01 -5.2089849539307E-01  1.5354449832106E+00
77  7.6000000000000E-01 -5.3752769406244E-01  1.5776142825268E+00
78  7.7000000000000E-01 -5.4950843991286E-01  1.6157031972239E+00
79  7.8000000000000E-01 -5.5701480143467E-01  1.6494506922984E+00
80  7.9000000000000E-01 -5.6024885132581E-01  1.6786340692328E+00
81  8.0000000000000E-01 -5.5943838082797E-01  1.7030688050571E+00
82  8.1000000000000E-01 -5.5483443327013E-01  1.7226079025753E+00
83  8.2000000000000E-01 -5.4670866318269E-01  1.7371408458129E+00
84  8.3000000000000E-01 -5.3535052930420E-01  1.7465922599298E+00
85  8.4000000000000E-01 -5.2106433248481E-01  1.7509203758442E+00
86  8.5000000000000E-01 -5.0416611284575E-01  1.7501153966371E+00
87  8.6000000000000E-01 -4.8498042449914E-01  1.7441978556080E+00
88  8.7000000000000E-01 -4.6383701054883E-01  1.7332170449424E+00
89  8.8000000000000E-01 -4.4106740583707E-01  1.7172495797680E+00
90  8.9000000000000E-01 -4.1700149979936E-01  1.6963981454883E+00
91  9.0000000000000E-01 -3.9196409665093E-01  1.6707904573689E+00
92  9.1000000000000E-01 -3.6627151474439E-01  1.6405784411751E+00
93  9.2000000000000E-01 -3.4022827109472E-01  1.6059376230473E+00
94  9.3000000000000E-01 -3.1412390054718E-01  1.5670666966316E+00
95  9.4000000000000E-01 -2.8822996165422E-01  1.5241872166335E+00
96  9.5000000000000E-01 -2.6279728282850E-01  1.4775433513067E+00
97  9.6000000000000E-01 -2.3805350256885E-01  1.4274016127700E+00
98  9.7000000000000E-01 -2.1420095635701E-01  1.3740504742164E+00
99  9.8000000000000E-01 -1.9141496006529E-01  1.3177997777454E+00
100  9.9000000000000E-01 -1.6984253531062E-01  1.2589798362734E+00
101  1.0000000000000E+00 -1.4960161607226E-01  1.1979401382273E+00
102  1.0100000000000E+00 -1.3078076805000E-01  1.1350475748240E+00
103  1.0200000000000E+00 -1.1343944269915E-01  1.0706841268538E+00
104  1.0300000000000E+00 -9.7608776699464E-02  1.0052439710602E+00
105  1.0400000000000E+00 -8.3292934895436E-02  9.3912999534409E-01
106  1.0500000000000E+00 -7.0470980647926E-02  8.7274974680991E-01
107  1.0600000000000E+00 -5.9099242206017E-02  8.0651087678992E-01
108  1.0700000000000E+00 -4.9114127355794E-02  7.4081619192075E-01
109  1.0800000000000E+00 -4.0435321497394E-02  6.7605846935476E-01
110  1.0900000000000E+00 -3.2969286586723E-02  6.1261524688092E-01
111  1.1000000000000E+00 -2.6612960453717E-02  5.5084385391359E-01
112  1.1100000000000E+00 -2.1257537989548E-02  4.9107700662621E-01
113  1.1200000000000E+00 -1.6792197961239E-02  4.3361934877172E-01
114  1.1300000000000E+00 -1.3107621939245E-02  3.7874537835670E-01
115  1.1400000000000E+00 -1.0099135284469E-02  3.2669925842367E-01
116  1.1500000000000E+00 -7.6692845472558E-03  2.7769706700048E-01
117  1.1600000000000E+00 -5.7296511597913E-03  2.3193209616438E-01
118  1.1700000000000E+00 -4.2016852638121E-03  1.8958386967163E-01
119  1.1800000000000E+00 -3.0164003438950E-03  1.5083142918001E-01
120  1.1900000000000E+00 -2.1122767145012E-03  1.1587266158091E-01
121  1.2000000000000E+00 -1.4453070348642E-03  8.4914730507334E-02
122  1.2100000000000E+00 -9.8949469973773E-04  5.8186642255142E-02
123  1.2200000000000E+00 -6.5978562598887E-04  3.6128687081360E-02
124  1.2300000000000E+00 -3.9736020785963E-04  1.9118887578957E-02
125  1.2400000000000E+00 -1.8233468160656E-04  7.4167718838243E-03