Nh    ONCVPSP-4.0.1  r_core=   1.10128   1.10128   1.10128   1.10128
113.0000     53.0000      231012    zatom,zion,pspd
8   -1012   3     4   600     0    pspcod,pspxc,lmax,lloc,mmax,r2well
5.99000000  5.00000000  0.00000000    rchrg fchrg qchrg
3     3     3     2    nproj
3     1           extension_switch
3     4     3    nprojso
0                         2.6939805974116E+01 -7.9427914316373E+00  2.8887907521254E+00
1  0.0000000000000E+00  2.5940478654007E-09  2.1384564119487E-09  2.9327221873210E-08
2  1.0000000000000E-02  2.2073193911370E-01  6.6106766010002E-02  5.1415663579215E-02
3  2.0000000000000E-02  4.3903256821346E-01  1.3207294158018E-01  1.0130638116584E-01
4  3.0000000000000E-02  6.5249867435391E-01  1.9775848340526E-01  1.4817115999672E-01
5  4.0000000000000E-02  8.5878297190761E-01  2.6302444735096E-01  1.9055675356912E-01
6  5.0000000000000E-02  1.0556213979691E+00  3.2773354967687E-01  2.2708112533284E-01
7  6.0000000000000E-02  1.2408596027039E+00  3.9175074052988E-01  2.5645639668207E-01
8  7.0000000000000E-02  1.4124783617218E+00  4.5494379107497E-01  2.7751106868189E-01
9  8.0000000000000E-02  1.5686176349613E+00  5.1718389349154E-01  2.8921127763669E-01
10  9.0000000000000E-02  1.7075989948931E+00  5.7834627062471E-01  2.9068081248851E-01
11  1.0000000000000E-01  1.8279461470167E+00  6.3831078948072E-01  2.8121958980758E-01
12  1.1000000000000E-01  1.9284032685968E+00  6.9696257014752E-01  2.6032025270449E-01
13  1.2000000000000E-01  2.0079508983771E+00  7.5419257926137E-01  2.2768253631364E-01
14  1.3000000000000E-01  2.0658191215323E+00  8.0989819498516E-01  1.8322502745081E-01
15  1.4000000000000E-01  2.1014978112275E+00  8.6398372875754E-01  1.2709394223969E-01
16  1.5000000000000E-01  2.1147437114913E+00  9.1636088794370E-01  5.9668555176195E-02
17  1.6000000000000E-01  2.1055841761454E+00  9.6694916307246E-01 -1.8437062067274E-02
18  1.7000000000000E-01  2.0743174154643E+00  1.0156761236561E+00 -1.0637629273058E-01
19  1.8000000000000E-01  2.0215091459710E+00  1.0624776077013E+00 -2.0307646096574E-01
20  1.9000000000000E-01  1.9479855889464E+00  1.1072977919362E+00 -3.0724972103062E-01
21  2.0000000000000E-01  1.8548228191227E+00  1.1500891324720E+00 -4.1740843035287E-01
22  2.1000000000000E-01  1.7433325256736E+00  1.1908121690089E+00 -5.3188498566079E-01
23  2.2000000000000E-01  1.6150443117249E+00  1.2294351896961E+00 -6.4885598977118E-01
24  2.3000000000000E-01  1.4716847246819E+00  1.2659337582114E+00 -7.6637049824298E-01
25  2.4000000000000E-01  1.3151532759923E+00  1.3002901093880E+00 -8.8238197384334E-01
26  2.5000000000000E-01  1.1474957736880E+00  1.3324924245938E+00 -9.9478345686644E-01
27  2.6000000000000E-01  9.7087535225537E-01  1.3625340028714E+00 -1.1014453452573E+00
28  2.7000000000000E-01  7.8754164013616E-01  1.3904123483701E+00 -1.2002550746878E+00
29  2.8000000000000E-01  5.9979855360922E-01  1.4161281986538E+00 -1.2891578995340E+00
30  2.9000000000000E-01  4.0997124522038E-01  1.4396845218608E+00 -1.3661979050603E+00
31  3.0000000000000E-01  2.2037276380899E-01  1.4610855132661E+00 -1.4295583324925E+00
32  3.1000000000000E-01  3.3271000286110E-02  1.4803356234072E+00 -1.4776002747936E+00
33  3.2000000000000E-01 -1.4914350225547E-01  1.4974386504943E+00 -1.5088988038225E+00
34  3.3000000000000E-01 -3.2478830432066E-01  1.5123969292526E+00 -1.5222756201728E+00
35  3.4000000000000E-01 -4.9171784406435E-01  1.5252106466353E+00 -1.5168273754217E+00
36  3.5000000000000E-01 -6.4814971726153E-01  1.5358773120098E+00 -1.4919489018192E+00
37  3.6000000000000E-01 -7.9248799850508E-01  1.5443914055330E+00 -1.4473506946535E+00
38  3.7000000000000E-01 -9.2334319794226E-01  1.5507442235969E+00 -1.3830701247687E+00
39  3.8000000000000E-01 -1.0395485167430E+00  1.5549239345964E+00 -1.2994760092260E+00
40  3.9000000000000E-01 -1.1401721415027E+00  1.5569158520178E+00 -1.1972663324481E+00
41  4.0000000000000E-01 -1.2245254008891E+00  1.5567029251888E+00 -1.0774590833328E+00
42  4.1000000000000E-01 -1.2921666948356E+00  1.5542664411790E+00 -9.4137635037917E-01
43  4.2000000000000E-01 -1.3429011951254E+00  1.5495869245375E+00 -7.9062199125212E-01
44  4.3000000000000E-01 -1.3767764039335E+00  1.5426452150336E+00 -6.2705335988437E-01
45  4.4000000000000E-01 -1.3940737414625E+00  1.5334236975521E+00 -4.5274772786936E-01
46  4.5000000000000E-01 -1.3952964130254E+00  1.5219076529955E+00 -2.6996417268223E-01
47  4.6000000000000E-01 -1.3811538777717E+00  1.5080866946461E+00 -8.1101818929617E-02
48  4.7000000000000E-01 -1.3525433039775E+00  1.4919562510893E+00  1.1134459306594E-01
49  4.8000000000000E-01 -1.3105284479863E+00  1.4735190546101E+00  3.0483077705710E-01
50  4.9000000000000E-01 -1.2563164344086E+00  1.4527865930140E+00  4.9680954442931E-01
51  5.0000000000000E-01 -1.1912329433817E+00  1.4297804831235E+00  6.8477695677191E-01
52  5.1000000000000E-01 -1.1166963262317E+00  1.4045337257301E+00  8.6631695220438E-01
53  5.2000000000000E-01 -1.0341911738834E+00  1.3770918044931E+00  1.0391434677816E+00
54  5.3000000000000E-01 -9.4524185326743E-01  1.3475135950513E+00  1.2011391634958E+00
55  5.4000000000000E-01 -8.5138650660226E-01  1.3158720553202E+00  1.3503899589061E+00
56  5.5000000000000E-01 -7.5415197786610E-01  1.2822546734253E+00  1.4852147172980E+00
57  5.6000000000000E-01 -6.5503009136569E-01  1.2467636557637E+00  1.6041895500602E+00
58  5.7000000000000E-01 -5.5545566057490E-01  1.2095158441124E+00  1.7061663609040E+00
59  5.8000000000000E-01 -4.5678655298397E-01  1.1706423572843E+00  1.7902854007933E+00
60  5.9000000000000E-01 -3.6028608024940E-01  1.1302879593871E+00  1.8559817552210E+00
61  6.0000000000000E-01 -2.6710792411862E-01  1.0886101630561E+00  1.9029858312890E+00
62  6.1000000000000E-01 -1.7828374899877E-01  1.0457780819542E+00  1.9313180488781E+00
63  6.2000000000000E-01 -9.4713593086393E-02  1.0019710522041E+00  1.9412780645773E+00
64  6.3000000000000E-01 -1.7159072936309E-02  9.5737704712039E-01  1.9334289662520E+00
65  6.4000000000000E-01  5.3760617718690E-02  9.1219091356750E-01  1.9085769681701E+00
66  6.5000000000000E-01  1.1756998435307E-01  8.6661246142589E-01  1.8677472103278E+00
67  6.6000000000000E-01  1.7393589856937E-01  8.2084443999166E-01  1.8121563206474E+00
68  6.7000000000000E-01  2.2266381199129E-01  7.7509043668001E-01  1.7431824354367E+00
69  6.8000000000000E-01  2.6369170974261E-01  7.2955273419631E-01  1.6623333929661E+00
70  6.9000000000000E-01  2.9708202737706E-01  6.8443016244660E-01  1.5712138188091E+00
71  7.0000000000000E-01  3.2301178159376E-01  6.3991598096925E-01  1.4714918117276E+00
72  7.1000000000000E-01  3.4176118699195E-01  5.9619582667393E-01  1.3648659175729E+00
73  7.2000000000000E-01  3.5370104875277E-01  5.5344576027135E-01  1.2530330482482E+00
74  7.3000000000000E-01  3.5927923474541E-01  5.1183044305909E-01  1.1376579654013E+00
75  7.4000000000000E-01  3.5900654033059E-01  4.7150147377314E-01  1.0203449061232E+00
76  7.5000000000000E-01  3.5344226516398E-01  4.3259591308282E-01  9.0261188196644E-01
77  7.6000000000000E-01  3.4317982353225E-01  3.9523502103216E-01  7.8586813400783E-01
78  7.7000000000000E-01  3.2883270794773E-01  3.5952323031940E-01  6.7139517565858E-01
79  7.8000000000000E-01  3.1102111946302E-01  3.2554737573201E-01  5.6033180099192E-01
80  7.9000000000000E-01  2.9035956681582E-01  2.9337619725496E-01  4.5366337820453E-01
81  8.0000000000000E-01  2.6744571924456E-01  2.6306013125226E-01  3.5221568337141E-01
82  8.1000000000000E-01  2.4285077361524E-01  2.3463140055840E-01  2.5665345607905E-01
83  8.2000000000000E-01  2.1711156418243E-01  2.0810441015122E-01  1.6748377230042E-01
84  8.3000000000000E-01  1.9072460155765E-01  1.8347645013084E-01  8.5064226914446E-02
85  8.4000000000000E-01  1.6414217485459E-01  1.6072870179842E-01  9.6157939788380E-03
86  8.5000000000000E-01  1.3777058604837E-01  1.3982753550022E-01 -5.8759917675715E-02
87  8.6000000000000E-01  1.1197050682658E-01  1.2072608035110E-01 -1.2005947789100E-01
88  8.7000000000000E-01  8.7059354146854E-02  1.0336603575365E-01 -1.7435320054405E-01
89  8.8000000000000E-01  6.3315469936539E-02  8.7679682561364E-02 -2.2175840393329E-01
90  8.9000000000000E-01  4.0983761540382E-02  7.3592037582810E-02 -2.6241161620433E-01
91  9.0000000000000E-01  2.0282311434969E-02  6.1023078688604E-02 -2.9644133406784E-01
92  9.1000000000000E-01  1.4092962925317E-03  4.9889948878578E-02 -3.2394335695446E-01
93  9.2000000000000E-01 -1.5450634255472E-02  4.0109026125745E-02 -3.4496119219080E-01
94  9.3000000000000E-01 -3.0121580662328E-02  3.1597721487089E-02 -3.5947456327335E-01
95  9.4000000000000E-01 -4.2434514502835E-02  2.4275840729086E-02 -3.6739965590820E-01
96  9.5000000000000E-01 -5.2229851794177E-02  1.8066314443211E-02 -3.6860540786589E-01
97  9.6000000000000E-01 -5.9366315036186E-02  1.2895068214215E-02 -3.6295089143014E-01
98  9.7000000000000E-01 -6.3738227027669E-02  8.6897677682079E-03 -3.5034965325523E-01
99  9.8000000000000E-01 -6.5303711323461E-02  5.3771340585679E-03 -3.3086776830347E-01
100  9.9000000000000E-01 -6.4126649510150E-02  2.8784778666581E-03 -3.0486339109874E-01
101  1.0000000000000E+00 -6.0435430502384E-02  1.1030788719184E-03 -2.7317599842645E-01
102  1.0100000000000E+00 -5.4691104003181E-02 -5.9810308281489E-05 -2.3733972023177E-01
103  1.0200000000000E+00 -4.7511545927259E-02 -7.3309437533618E-04 -1.9932900548953E-01
104  1.0300000000000E+00 -3.9509959928181E-02 -1.0338215837959E-03 -1.6104167365279E-01
105  1.0400000000000E+00 -3.1261312424463E-02 -1.0690278557113E-03 -1.2420465098017E-01
106  1.0500000000000E+00 -2.3272337141766E-02 -9.3374060279268E-04 -9.0306426668372E-02
107  1.0600000000000E+00 -1.5860455607228E-02 -7.0625329559839E-04 -6.0316716977421E-02
108  1.0700000000000E+00 -9.4696716147301E-03 -4.5185966852529E-04 -3.5414601001054E-02
109  1.0800000000000E+00 -4.5101288131547E-03 -2.2485231396495E-04 -1.6633504444279E-02
110  1.0900000000000E+00 -1.2871573502402E-03 -6.5703739169548E-05 -4.6925742138417E-03
111  1.1000000000000E+00 -3.3796975256183E-05 -1.7331801686835E-06 -1.2179441612771E-04
112  1.1100000000000E+00 -6.0534602703685E-06 -3.1273474670955E-07 -2.1876450424240E-05
113  1.1200000000000E+00  5.9289054724938E-07  3.0476452105227E-08  2.1525144388875E-06
114  1.13  0.  0.  0.
115  1.14  0.  0.  0.
116  1.15  0.  0.  0.
117  1.16  0.  0.  0.
118  1.17  0.  0.  0.
119  1.18  0.  0.  0.
120  1.19  0.  0.  0.
121  1.20  0.  0.  0.
122  1.21  0.  0.  0.
123  1.22  0.  0.  0.
124  1.23  0.  0.  0.
125  1.24  0.  0.  0.
126  1.25  0.  0.  0.
127  1.26  0.  0.  0.
128  1.27  0.  0.  0.
129  1.28  0.  0.  0.
130  1.29  0.  0.  0.
131  1.30  0.  0.  0.
132  1.31  0.  0.  0.
133  1.32  0.  0.  0.
134  1.33  0.  0.  0.
135  1.34  0.  0.  0.
136  1.35  0.  0.  0.
137  1.36  0.  0.  0.
138  1.37  0.  0.  0.
139  1.38  0.  0.  0.
140  1.39  0.  0.  0.
141  1.40  0.  0.  0.
142  1.41  0.  0.  0.
143  1.42  0.  0.  0.
144  1.43  0.  0.  0.
145  1.44  0.  0.  0.
146  1.45  0.  0.  0.
147  1.46  0.  0.  0.
148  1.47  0.  0.  0.
149  1.48  0.  0.  0.
150  1.49  0.  0.  0.
151  1.50  0.  0.  0.
152  1.51  0.  0.  0.
153  1.52  0.  0.  0.
154  1.53  0.  0.  0.
155  1.54  0.  0.  0.
156  1.55  0.  0.  0.
157  1.56  0.  0.  0.
158  1.57  0.  0.  0.
159  1.58  0.  0.  0.
160  1.59  0.  0.  0.
161  1.60  0.  0.  0.
162  1.61  0.  0.  0.
163  1.62  0.  0.  0.
164  1.63  0.  0.  0.
165  1.64  0.  0.  0.
166  1.65  0.  0.  0.
167  1.66  0.  0.  0.
168  1.67  0.  0.  0.
169  1.68  0.  0.  0.
170  1.69  0.  0.  0.
171  1.70  0.  0.  0.
172  1.71  0.  0.  0.
173  1.72  0.  0.  0.
174  1.73  0.  0.  0.
175  1.74  0.  0.  0.
176  1.75  0.  0.  0.
177  1.76  0.  0.  0.
178  1.77  0.  0.  0.
179  1.78  0.  0.  0.
180  1.79  0.  0.  0.
181  1.80  0.  0.  0.
182  1.81  0.  0.  0.
183  1.82  0.  0.  0.
184  1.83  0.  0.  0.
185  1.84  0.  0.  0.
186  1.85  0.  0.  0.
187  1.86  0.  0.  0.
188  1.87  0.  0.  0.
189  1.88  0.  0.  0.
190  1.89  0.  0.  0.
191  1.90  0.  0.  0.
192  1.91  0.  0.  0.
193  1.92  0.  0.  0.
194  1.93  0.  0.  0.
195  1.94  0.  0.  0.
196  1.95  0.  0.  0.
197  1.96  0.  0.  0.
198  1.97  0.  0.  0.
199  1.98  0.  0.  0.
200  1.99  0.  0.  0.
201  2.00  0.  0.  0.
202  2.01  0.  0.  0.
203  2.02  0.  0.  0.
204  2.03  0.  0.  0.
205  2.04  0.  0.  0.
206  2.05  0.  0.  0.
207  2.06  0.  0.  0.
208  2.07  0.  0.  0.
209  2.08  0.  0.  0.
210  2.09  0.  0.  0.
211  2.10  0.  0.  0.
212  2.11  0.  0.  0.
213  2.12  0.  0.  0.
214  2.13  0.  0.  0.
215  2.14  0.  0.  0.
216  2.15  0.  0.  0.
217  2.16  0.  0.  0.
218  2.17  0.  0.  0.
219  2.18  0.  0.  0.
220  2.19  0.  0.  0.
221  2.20  0.  0.  0.
222  2.21  0.  0.  0.
223  2.22  0.  0.  0.
224  2.23  0.  0.  0.
225  2.24  0.  0.  0.
226  2.25  0.  0.  0.
227  2.26  0.  0.  0.
228  2.27  0.  0.  0.
229  2.28  0.  0.  0.
230  2.29  0.  0.  0.
231  2.30  0.  0.  0.
232  2.31  0.  0.  0.
233  2.32  0.  0.  0.
234  2.33  0.  0.  0.
235  2.34  0.  0.  0.
236  2.35  0.  0.  0.
237  2.36  0.  0.  0.
238  2.37  0.  0.  0.
239  2.38  0.  0.  0.
240  2.39  0.  0.  0.
241  2.40  0.  0.  0.
242  2.41  0.  0.  0.
243  2.42  0.  0.  0.
244  2.43  0.  0.  0.
245  2.44  0.  0.  0.
246  2.45  0.  0.  0.
247  2.46  0.  0.  0.
248  2.47  0.  0.  0.
249  2.48  0.  0.  0.
250  2.49  0.  0.  0.
251  2.50  0.  0.  0.
252  2.51  0.  0.  0.
253  2.52  0.  0.  0.
254  2.53  0.  0.  0.
255  2.54  0.  0.  0.
256  2.55  0.  0.  0.
257  2.56  0.  0.  0.
258  2.57  0.  0.  0.
259  2.58  0.  0.  0.
260  2.59  0.  0.  0.
261  2.60  0.  0.  0.
262  2.61  0.  0.  0.
263  2.62  0.  0.  0.
264  2.63  0.  0.  0.
265  2.64  0.  0.  0.
266  2.65  0.  0.  0.
267  2.66  0.  0.  0.
268  2.67  0.  0.  0.
269  2.68  0.  0.  0.
270  2.69  0.  0.  0.
271  2.70  0.  0.  0.
272  2.71  0.  0.  0.
273  2.72  0.  0.  0.
274  2.73  0.  0.  0.
275  2.74  0.  0.  0.
276  2.75  0.  0.  0.
277  2.76  0.  0.  0.
278  2.77  0.  0.  0.
279  2.78  0.  0.  0.
280  2.79  0.  0.  0.
281  2.80  0.  0.  0.
282  2.81  0.  0.  0.
283  2.82  0.  0.  0.
284  2.83  0.  0.  0.
285  2.84  0.  0.  0.
286  2.85  0.  0.  0.
287  2.86  0.  0.  0.
288  2.87  0.  0.  0.
289  2.88  0.  0.  0.
290  2.89  0.  0.  0.
291  2.90  0.  0.  0.
292  2.91  0.  0.  0.
293  2.92  0.  0.  0.
294  2.93  0.  0.  0.
295  2.94  0.  0.  0.
296  2.95  0.  0.  0.
297  2.96  0.  0.  0.
298  2.97  0.  0.  0.
299  2.98  0.  0.  0.
300  2.99  0.  0.  0.
301  3.00  0.  0.  0.
302  3.01  0.  0.  0.
303  3.02  0.  0.  0.
304  3.03  0.  0.  0.
305  3.04  0.  0.  0.
306  3.05  0.  0.  0.
307  3.06  0.  0.  0.
308  3.07  0.  0.  0.
309  3.08  0.  0.  0.
310  3.09  0.  0.  0.
311  3.10  0.  0.  0.
312  3.11  0.  0.  0.
313  3.12  0.  0.  0.
314  3.13  0.  0.  0.
315  3.14  0.  0.  0.
316  3.15  0.  0.  0.
317  3.16  0.  0.  0.
318  3.17  0.  0.  0.
319  3.18  0.  0.  0.
320  3.19  0.  0.  0.
321  3.20  0.  0.  0.
322  3.21  0.  0.  0.
323  3.22  0.  0.  0.
324  3.23  0.  0.  0.
325  3.24  0.  0.  0.
326  3.25  0.  0.  0.
327  3.26  0.  0.  0.
328  3.27  0.  0.  0.
329  3.28  0.  0.  0.
330  3.29  0.  0.  0.
331  3.30  0.  0.  0.
332  3.31  0.  0.  0.
333  3.32  0.  0.  0.
334  3.33  0.  0.  0.
335  3.34  0.  0.  0.
336  3.35  0.  0.  0.
337  3.36  0.  0.  0.
338  3.37  0.  0.  0.
339  3.38  0.  0.  0.
340  3.39  0.  0.  0.
341  3.40  0.  0.  0.
342  3.41  0.  0.  0.
343  3.42  0.  0.  0.
344  3.43  0.  0.  0.
345  3.44  0.  0.  0.
346  3.45  0.  0.  0.
347  3.46  0.  0.  0.
348  3.47  0.  0.  0.
349  3.48  0.  0.  0.
350  3.49  0.  0.  0.
351  3.50  0.  0.  0.
352  3.51  0.  0.  0.
353  3.52  0.  0.  0.
354  3.53  0.  0.  0.
355  3.54  0.  0.  0.
356  3.55  0.  0.  0.
357  3.56  0.  0.  0.
358  3.57  0.  0.  0.
359  3.58  0.  0.  0.
360  3.59  0.  0.  0.
361  3.60  0.  0.  0.
362  3.61  0.  0.  0.
363  3.62  0.  0.  0.
364  3.63  0.  0.  0.
365  3.64  0.  0.  0.
366  3.65  0.  0.  0.
367  3.66  0.  0.  0.
368  3.67  0.  0.  0.
369  3.68  0.  0.  0.
370  3.69  0.  0.  0.
371  3.70  0.  0.  0.
372  3.71  0.  0.  0.
373  3.72  0.  0.  0.
374  3.73  0.  0.  0.
375  3.74  0.  0.  0.
376  3.75  0.  0.  0.
377  3.76  0.  0.  0.
378  3.77  0.  0.  0.
379  3.78  0.  0.  0.
380  3.79  0.  0.  0.
381  3.80  0.  0.  0.
382  3.81  0.  0.  0.
383  3.82  0.  0.  0.
384  3.83  0.  0.  0.
385  3.84  0.  0.  0.
386  3.85  0.  0.  0.
387  3.86  0.  0.  0.
388  3.87  0.  0.  0.
389  3.88  0.  0.  0.
390  3.89  0.  0.  0.
391  3.90  0.  0.  0.
392  3.91  0.  0.  0.
393  3.92  0.  0.  0.
394  3.93  0.  0.  0.
395  3.94  0.  0.  0.
396  3.95  0.  0.  0.
397  3.96  0.  0.  0.
398  3.97  0.  0.  0.
399  3.98  0.  0.  0.
400  3.99  0.  0.  0.
401  4.00  0.  0.  0.
402  4.01  0.  0.  0.
403  4.02  0.  0.  0.
404  4.03  0.  0.  0.
405  4.04  0.  0.  0.
406  4.05  0.  0.  0.
407  4.06  0.  0.  0.
408  4.07  0.  0.  0.
409  4.08  0.  0.  0.
410  4.09  0.  0.  0.
411  4.10  0.  0.  0.
412  4.11  0.  0.  0.
413  4.12  0.  0.  0.
414  4.13  0.  0.  0.
415  4.14  0.  0.  0.
416  4.15  0.  0.  0.
417  4.16  0.  0.  0.
418  4.17  0.  0.  0.
419  4.18  0.  0.  0.
420  4.19  0.  0.  0.
421  4.20  0.  0.  0.
422  4.21  0.  0.  0.
423  4.22  0.  0.  0.
424  4.23  0.  0.  0.
425  4.24  0.  0.  0.
426  4.25  0.  0.  0.
427  4.26  0.  0.  0.
428  4.27  0.  0.  0.
429  4.28  0.  0.  0.
430  4.29  0.  0.  0.
431  4.30  0.  0.  0.
432  4.31  0.  0.  0.
433  4.32  0.  0.  0.
434  4.33  0.  0.  0.
435  4.34  0.  0.  0.
436  4.35  0.  0.  0.
437  4.36  0.  0.  0.
438  4.37  0.  0.  0.
439  4.38  0.  0.  0.
440  4.39  0.  0.  0.
441  4.40  0.  0.  0.
442  4.41  0.  0.  0.
443  4.42  0.  0.  0.
444  4.43  0.  0.  0.
445  4.44  0.  0.  0.
446  4.45  0.  0.  0.
447  4.46  0.  0.  0.
448  4.47  0.  0.  0.
449  4.48  0.  0.  0.
450  4.49  0.  0.  0.
451  4.50  0.  0.  0.
452  4.51  0.  0.  0.
453  4.52  0.  0.  0.
454  4.53  0.  0.  0.
455  4.54  0.  0.  0.
456  4.55  0.  0.  0.
457  4.56  0.  0.  0.
458  4.57  0.  0.  0.
459  4.58  0.  0.  0.
460  4.59  0.  0.  0.
461  4.60  0.  0.  0.
462  4.61  0.  0.  0.
463  4.62  0.  0.  0.
464  4.63  0.  0.  0.
465  4.64  0.  0.  0.
466  4.65  0.  0.  0.
467  4.66  0.  0.  0.
468  4.67  0.  0.  0.
469  4.68  0.  0.  0.
470  4.69  0.  0.  0.
471  4.70  0.  0.  0.
472  4.71  0.  0.  0.
473  4.72  0.  0.  0.
474  4.73  0.  0.  0.
475  4.74  0.  0.  0.
476  4.75  0.  0.  0.
477  4.76  0.  0.  0.
478  4.77  0.  0.  0.
479  4.78  0.  0.  0.
480  4.79  0.  0.  0.
481  4.80  0.  0.  0.
482  4.81  0.  0.  0.
483  4.82  0.  0.  0.
484  4.83  0.  0.  0.
485  4.84  0.  0.  0.
486  4.85  0.  0.  0.
487  4.86  0.  0.  0.
488  4.87  0.  0.  0.
489  4.88  0.  0.  0.
490  4.89  0.  0.  0.
491  4.90  0.  0.  0.
492  4.91  0.  0.  0.
493  4.92  0.  0.  0.
494  4.93  0.  0.  0.
495  4.94  0.  0.  0.
496  4.95  0.  0.  0.
497  4.96  0.  0.  0.
498  4.97  0.  0.  0.
499  4.98  0.  0.  0.
500  4.99  0.  0.  0.
501  5.00  0.  0.  0.
502  5.01  0.  0.  0.
503  5.02  0.  0.  0.
504  5.03  0.  0.  0.
505  5.04  0.  0.  0.
506  5.05  0.  0.  0.
507  5.06  0.  0.  0.
508  5.07  0.  0.  0.
509  5.08  0.  0.  0.
510  5.09  0.  0.  0.
511  5.10  0.  0.  0.
512  5.11  0.  0.  0.
513  5.12  0.  0.  0.
514  5.13  0.  0.  0.
515  5.14  0.  0.  0.
516  5.15  0.  0.  0.
517  5.16  0.  0.  0.
518  5.17  0.  0.  0.
519  5.18  0.  0.  0.
520  5.19  0.  0.  0.
521  5.20  0.  0.  0.
522  5.21  0.  0.  0.
523  5.22  0.  0.  0.
524  5.23  0.  0.  0.
525  5.24  0.  0.  0.
526  5.25  0.  0.  0.
527  5.26  0.  0.  0.
528  5.27  0.  0.  0.
529  5.28  0.  0.  0.
530  5.29  0.  0.  0.
531  5.30  0.  0.  0.
532  5.31  0.  0.  0.
533  5.32  0.  0.  0.
534  5.33  0.  0.  0.
535  5.34  0.  0.  0.
536  5.35  0.  0.  0.
537  5.36  0.  0.  0.
538  5.37  0.  0.  0.
539  5.38  0.  0.  0.
540  5.39  0.  0.  0.
541  5.40  0.  0.  0.
542  5.41  0.  0.  0.
543  5.42  0.  0.  0.
544  5.43  0.  0.  0.
545  5.44  0.  0.  0.
546  5.45  0.  0.  0.
547  5.46  0.  0.  0.
548  5.47  0.  0.  0.
549  5.48  0.  0.  0.
550  5.49  0.  0.  0.
551  5.50  0.  0.  0.
552  5.51  0.  0.  0.
553  5.52  0.  0.  0.
554  5.53  0.  0.  0.
555  5.54  0.  0.  0.
556  5.55  0.  0.  0.
557  5.56  0.  0.  0.
558  5.57  0.  0.  0.
559  5.58  0.  0.  0.
560  5.59  0.  0.  0.
561  5.60  0.  0.  0.
562  5.61  0.  0.  0.
563  5.62  0.  0.  0.
564  5.63  0.  0.  0.
565  5.64  0.  0.  0.
566  5.65  0.  0.  0.
567  5.66  0.  0.  0.
568  5.67  0.  0.  0.
569  5.68  0.  0.  0.
570  5.69  0.  0.  0.
571  5.70  0.  0.  0.
572  5.71  0.  0.  0.
573  5.72  0.  0.  0.
574  5.73  0.  0.  0.
575  5.74  0.  0.  0.
576  5.75  0.  0.  0.
577  5.76  0.  0.  0.
578  5.77  0.  0.  0.
579  5.78  0.  0.  0.
580  5.79  0.  0.  0.
581  5.80  0.  0.  0.
582  5.81  0.  0.  0.
583  5.82  0.  0.  0.
584  5.83  0.  0.  0.
585  5.84  0.  0.  0.
586  5.85  0.  0.  0.
587  5.86  0.  0.  0.
588  5.87  0.  0.  0.
589  5.88  0.  0.  0.
590  5.89  0.  0.  0.
591  5.90  0.  0.  0.
592  5.91  0.  0.  0.
593  5.92  0.  0.  0.
594  5.93  0.  0.  0.
595  5.94  0.  0.  0.
596  5.95  0.  0.  0.
597  5.96  0.  0.  0.
598  5.97  0.  0.  0.
599  5.98  0.  0.  0.
600  5.99  0.  0.  0.
1                        -6.9693643814289E+00  6.0595583719923E+00 -3.3120072306249E-01
1  0.0000000000000E+00 -8.3231416758700E-09  5.3644541142539E-08  9.2909670568186E-08
2  1.0000000000000E-02  1.3714037898862E-03  8.2735725643286E-03  4.8287866168449E-03
3  2.0000000000000E-02  5.4902524527609E-03  3.2962520972615E-02  1.9189648932742E-02
4  3.0000000000000E-02  1.2370228388278E-02  7.3673539960791E-02  4.2708796565339E-02
5  4.0000000000000E-02  2.2033375516501E-02  1.2975776591697E-01  7.4772197923213E-02
6  5.0000000000000E-02  3.4508976059443E-02  2.0032063955914E-01  1.1453881728177E-01
7  6.0000000000000E-02  4.9832011519737E-02  2.8423550506131E-01  1.6095876763545E-01
8  7.0000000000000E-02  6.8041240607531E-02  3.8016074050664E-01  2.1279600936706E-01
9  8.0000000000000E-02  8.9176935189823E-02  4.8656016090103E-01  2.6865513186544E-01
10  9.0000000000000E-02  1.1327832290740E-01  6.0172638498795E-01  3.2701167156028E-01
11  1.0000000000000E-01  1.4038079178160E-01  7.2380681149716E-01  3.8624534710804E-01
12  1.1000000000000E-01  1.7051291779000E-01  8.5083180992337E-01  4.4467553211701E-01
13  1.2000000000000E-01  2.0369338091679E-01  9.8074469609539E-01  5.0059823906387E-01
14  1.3000000000000E-01  2.3992783848997E-01  1.1114330342256E+00  5.5232385587946E-01
15  1.4000000000000E-01  2.7920582663399E-01  1.2407607853133E+00  5.9821485973084E-01
16  1.5000000000000E-01  3.2149776134476E-01  1.3666008071192E+00  6.3672273116342E-01
17  1.6000000000000E-01  3.6675211001064E-01  1.4868672037445E+00  6.6642330604320E-01
18  1.7000000000000E-01  4.1489280215772E-01  1.5995470233507E+00  6.8604983239623E-01
19  1.8000000000000E-01  4.6581694481339E-01  1.7027308108506E+00  6.9452304371591E-01
20  1.9000000000000E-01  5.1939290320886E-01  1.7946415384729E+00  6.9097761873463E-01
21  2.0000000000000E-01  5.7545880164886E-01  1.8736614608387E+00  6.7478446889250E-01
22  2.1000000000000E-01  6.3382149236235E-01  1.9383564723142E+00  6.4556837737909E-01
23  2.2000000000000E-01  6.9425603212628E-01  1.9874975825756E+00  6.0322060604011E-01
24  2.3000000000000E-01  7.5650569756277E-01  2.0200791710133E+00  5.4790618679287E-01
25  2.4000000000000E-01  8.2028256040243E-01  2.0353337312186E+00  4.8006572048481E-01
26  2.5000000000000E-01  8.8526863385243E-01  2.0327428725850E+00  4.0041161622856E-01
27  2.6000000000000E-01  9.5111759068915E-01  2.0120444061936E+00  3.0991881595011E-01
28  2.7000000000000E-01  1.0174570430034E+00  1.9732354056808E+00  2.0981015994205E-01
29  2.8000000000000E-01  1.0838913628592E+00  1.9165711997017E+00  1.0153665738056E-01
30  2.9000000000000E-01  1.1500050126832E+00  1.8425603197941E+00 -1.3246971148875E-02
31  3.0000000000000E-01  1.2153663441826E+00  1.7519554947834E+00 -1.3271101616264E-01
32  3.1000000000000E-01  1.2795318151839E+00  1.6457408491638E+00 -2.5488321709582E-01
33  3.2000000000000E-01  1.3420505651858E+00  1.5251155269591E+00 -3.7768428982876E-01
34  3.3000000000000E-01  1.4024692827855E+00  1.3914740232356E+00 -4.9896585493338E-01
35  3.4000000000000E-01  1.4603372916442E+00  1.2463835615589E+00 -6.1655002804128E-01
36  3.5000000000000E-01  1.5152117764230E+00  1.0915589061899E+00 -7.2826989894342E-01
37  3.6000000000000E-01  1.5666630662671E+00  9.2883504168614E-01 -8.3201010679298E-01
38  3.7000000000000E-01  1.6142798910403E+00  7.6013818893874E-01 -9.2574671551171E-01
39  3.8000000000000E-01  1.6576745246594E+00  5.8745565475400E-01 -1.0075856062880E+00
40  3.9000000000000E-01  1.6964877305963E+00  4.1280503127273E-01 -1.0757986326601E+00
41  4.0000000000000E-01  1.7303934269009E+00  2.3820327135337E-01 -1.1288568275332E+00
42  4.1000000000000E-01  1.7591029919241E+00  6.5636166252278E-02 -1.1654600096982E+00
43  4.2000000000000E-01  1.7823691372245E+00 -1.0297125757001E-01 -1.1845622088228E+00
44  4.3000000000000E-01  1.7999892808464E+00 -2.6578292479572E-01 -1.1853924110082E+00
45  4.4000000000000E-01  1.8118083621317E+00 -4.2107801143584E-01 -1.1674702201434E+00
46  4.5000000000000E-01  1.8177210483373E+00 -5.6727492674498E-01 -1.1306161315276E+00
47  4.6000000000000E-01  1.8176732934081E+00 -7.0295259006939E-01 -1.0749562214833E+00
48  4.7000000000000E-01  1.8116632201044E+00 -8.2686866839273E-01 -1.0009211677280E+00
49  4.8000000000000E-01  1.7997413081101E+00 -9.3797449912616E-01 -9.0923962782709E-01
50  4.9000000000000E-01  1.7820098825248E+00 -1.0354264865291E+00 -8.0092611477929E-01
51  5.0000000000000E-01  1.7586219090488E+00 -1.1185938277639E+00 -6.7726361739003E-01
52  5.1000000000000E-01  1.7297791139721E+00 -1.1870624946117E+00 -5.3978131632883E-01
53  5.2000000000000E-01  1.6957294585450E+00 -1.2406354678823E+00 -3.9022784252326E-01
54  5.3000000000000E-01  1.6567640082239E+00 -1.2793292920790E+00 -2.3054061086252E-01
55  5.4000000000000E-01  1.6132132474242E+00 -1.3033670864814E+00 -6.2811837316504E-02
56  5.5000000000000E-01  1.5654428995906E+00 -1.3131682140756E+00  1.1074808998064E-01
57  5.6000000000000E-01  1.5138493204289E+00 -1.3093348703535E+00  2.8784916660919E-01
58  5.7000000000000E-01  1.4588545388742E+00 -1.2926359086788E+00  4.6616150194691E-01
59  5.8000000000000E-01  1.4009010256874E+00 -1.2639882665828E+00  6.4335545245634E-01
60  5.9000000000000E-01  1.3404462733586E+00 -1.2244363970563E+00  8.1714138464011E-01
61  6.0000000000000E-01  1.2779572732056E+00 -1.1751301398817E+00  9.8530830722585E-01
62  6.1000000000000E-01  1.2139049761501E+00 -1.1173014897360E+00  1.1457606404641E+00
63  6.2000000000000E-01  1.1487588226349E+00 -1.0522407298402E+00  1.2965524332383E+00
64  6.3000000000000E-01  1.0829814245567E+00 -9.8127240218590E-01  1.4359183949597E+00
65  6.4000000000000E-01  1.0170234780003E+00 -9.0573157794183E-01  1.5623011776408E+00
66  6.5000000000000E-01  9.5131898006752E-01 -8.2694087480851E-01  1.6743744225535E+00
67  6.6000000000000E-01  8.8628081634058E-01 -7.4618864238073E-01  1.7710611737283E+00
68  6.7000000000000E-01  8.2229677765048E-01 -6.6470870268268E-01  1.8515473553185E+00
69  6.8000000000000E-01  7.5972605602390E-01 -5.8366199184174E-01  1.9152901095128E+00
70  6.9000000000000E-01  6.9889626014670E-01 -5.0412040138351E-01  1.9620208941481E+00
71  7.0000000000000E-01  6.4010098062135E-01 -4.2705306501083E-01  1.9917433423468E+00
72  7.1000000000000E-01  5.8359792492318E-01 -3.5331528019761E-01  2.0047259883404E+00
73  7.2000000000000E-01  5.2960763149616E-01 -2.8364019478158E-01  2.0014900621737E+00
74  7.3000000000000E-01  4.7831276208738E-01 -2.1863332827727E-01  1.9827926494007E+00
75  7.4000000000000E-01  4.2985796140856E-01 -1.5876993715084E-01  1.9496055985551E+00
76  7.5000000000000E-01  3.8435026372787E-01 -1.0439517405100E-01  1.9030906376783E+00
77  7.6000000000000E-01  3.4186001721126E-01 -5.5726934131605E-02  1.8445712303791E+00
78  7.7000000000000E-01  3.0242228890726E-01 -1.2861228201151E-02  1.7755017608880E+00
79  7.8000000000000E-01  2.6603870633215E-01  2.4220126595177E-02  1.6974346857699E+00
80  7.9000000000000E-01  2.3267968576771E-01  5.5639751741806E-02  1.6119863270973E+00
81  8.0000000000000E-01  2.0228699270444E-01  8.1613179306814E-02  1.5208020079807E+00
82  8.1000000000000E-01  1.7477657639434E-01  1.0243587423795E-01  1.4255212467096E+00
83  8.2000000000000E-01  1.5004161822966E-01  1.1846915601672E-01  1.3277437309901E+00
84  8.3000000000000E-01  1.2795573262198E-01  1.3012538796608E-01  1.2289967897097E+00
85  8.4000000000000E-01  1.0837625917067E-01  1.3785281556710E-01  1.1307050674083E+00
86  8.5000000000000E-01  9.1147586110356E-02  1.4212044231608E-01  1.0341630874522E+00
87  8.6000000000000E-01  7.6104447213021E-02  1.4340333344510E-01  9.4051136522750E-01
88  8.7000000000000E-01  6.3075137375610E-02  1.4216873487482E-01  8.5071670403326E-01
89  8.8000000000000E-01  5.1884595910974E-02  1.3886338782928E-01  7.6555727536323E-01
90  8.9000000000000E-01  4.2357310930893E-02  1.3390240947262E-01  6.8561305357620E-01
91  9.0000000000000E-01  3.4320003006995E-02  1.2766009764847E-01  6.1126214417185E-01
92  9.1000000000000E-01  2.7604051356540E-02  1.2046300427765E-01  5.4268351659758E-01
93  9.2000000000000E-01  2.2047630964243E-02  1.1258560817189E-01  4.7986662818674E-01
94  9.3000000000000E-01  1.7497534160742E-02  1.0424890491057E-01  4.2262840683075E-01
95  9.4000000000000E-01  1.3810655084306E-02  9.5622219923139E-02  3.7063804753326E-01
96  9.5000000000000E-01  1.0855120017482E-02  8.6828541877451E-02  3.2345007312340E-01
97  9.6000000000000E-01  8.5110506938870E-03  7.7953667662926E-02  2.8054611298228E-01
98  9.7000000000000E-01  6.6709512057916E-03  6.9059448349830E-02  2.4138586632409E-01
99  9.8000000000000E-01  5.2397120279139E-03  6.0201428053768E-02  2.0546773884080E-01
100  9.9000000000000E-01  4.1342267378840E-03  5.1451183088198E-02  1.7239969660537E-01
101  1.0000000000000E+00  3.2826195135219E-03  4.2923591175070E-02  1.4198066392462E-01
102  1.0100000000000E+00  2.6231351924881E-03  3.4804268315273E-02  1.1427837557134E-01