Nh    ONCVPSP-4.0.1  r_core=   1.10128   1.10128   1.10128   1.10128
113.0000     53.0000      231012    zatom,zion,pspd
8   -1012   3     4   600     0    pspcod,pspxc,lmax,lloc,mmax,r2well
5.99000000  5.00000000  0.00000000    rchrg fchrg qchrg
3     2     2     2     0    nproj
1     1           extension_switch
0                         2.8180686230185E+01 -8.1763082810222E+00  3.0707165954040E+00
1  0.0000000000000E+00  3.7666139096615E-09  2.1861086274555E-09  3.1165329816840E-08
2  1.0000000000000E-02  2.2221988325867E-01  6.7503787618315E-02  4.6168747198001E-02
3  2.0000000000000E-02  4.4195308283669E-01  1.3485905684716E-01  9.0868749030137E-02
4  3.0000000000000E-02  6.5674190619067E-01  2.0191787646875E-01  1.3265455971604E-01
5  4.0000000000000E-02  8.6418637022292E-01  2.6853349454109E-01  1.7012718569438E-01
6  5.0000000000000E-02  1.0619723723666E+00  3.3456093973593E-01  2.0195693489005E-01
7  6.0000000000000E-02  1.2478990371785E+00  3.9985763498456E-01  2.2690578796403E-01
8  7.0000000000000E-02  1.4199049574920E+00  4.6428402474984E-01  2.4384909122888E-01
9  8.0000000000000E-02  1.5760930454131E+00  5.2770421505683E-01  2.5179633974764E-01
10  9.0000000000000E-02  1.7147537054901E+00  5.8998662292103E-01  2.4991078488999E-01
11  1.0000000000000E-01  1.8343860412666E+00  6.5100462915610E-01  2.3752756608503E-01
12  1.1000000000000E-01  1.9337168082452E+00  7.1063722587658E-01  2.1417003469361E-01
13  1.2000000000000E-01  2.0117168321509E+00  7.6876964749776E-01  1.7956391190759E-01
14  1.3000000000000E-01  2.0676146223450E+00  8.2529397183216E-01  1.3364890534662E-01
15  1.4000000000000E-01  2.1009069272270E+00  8.8010967613895E-01  7.6587403297788E-02
16  1.5000000000000E-01  2.1113660022436E+00  9.3312413183018E-01  8.7698736394402E-03
17  1.6000000000000E-01  2.0990433921977E+00  9.8425302108211E-01 -6.9183381814536E-02
18  1.7000000000000E-01  2.0642700681817E+00  1.0334206589187E+00 -1.5642442641566E-01
19  1.8000000000000E-01  2.0076528055459E+00  1.0805602054700E+00 -2.5188409262779E-01
20  1.9000000000000E-01  1.9300667424753E+00  1.1256137550650E+00 -3.5428276813023E-01
21  2.0000000000000E-01  1.8326441182136E+00  1.1685322915669E+00 -4.6214565192657E-01
22  2.1000000000000E-01  1.7167592546825E+00  1.2092755028205E+00 -5.7382246554638E-01
23  2.2000000000000E-01  1.5840099138010E+00  1.2478114511593E+00 -6.8751149115841E-01
24  2.3000000000000E-01  1.4361952335618E+00  1.2841161014649E+00 -8.0128768810843E-01
25  2.4000000000000E-01  1.2752905170063E+00  1.3181727131225E+00 -9.1313451603419E-01
26  2.5000000000000E-01  1.1034192176244E+00  1.3499711071872E+00 -1.0209789706693E+00
27  2.6000000000000E-01  9.2282253029183E-01  1.3795068249629E+00 -1.1227292223029E+00
28  2.7000000000000E-01  7.3582705653630E-01  1.4067801987984E+00 -1.2163141412085E+00
29  2.8000000000000E-01  5.4481106466210E-01  1.4317953600234E+00 -1.2997239036367E+00
30  2.9000000000000E-01  3.5216990718624E-01  1.4545592123916E+00 -1.3710508002293E+00
31  3.0000000000000E-01  1.6028118851026E-01  1.4750804020019E+00 -1.4285293195087E+00
32  3.1000000000000E-01 -2.8529706574374E-02  1.4933683163010E+00 -1.4705745552411E+00
33  3.2000000000000E-01 -2.1202310904204E-01  1.5094321453151E+00 -1.4958179899483E+00
34  3.3000000000000E-01 -3.8807698237807E-01  1.5232800376675E+00 -1.5031397386980E+00
35  3.4000000000000E-01 -5.5471668074393E-01  1.5349183821827E+00 -1.4916963975821E+00
36  3.5000000000000E-01 -7.1014200843368E-01  1.5443512429796E+00 -1.4609437289514E+00
37  3.6000000000000E-01 -8.5275109290080E-01  1.5515799720032E+00 -1.4106535285252E+00
38  3.7000000000000E-01 -9.8116064818918E-01  1.5566030180204E+00 -1.3409241548984E+00
39  3.8000000000000E-01 -1.0942222806988E+00  1.5594159453971E+00 -1.2521843558763E+00
40  3.9000000000000E-01 -1.1910345728962E+00  1.5600116696323E+00 -1.1451901938598E+00
41  4.0000000000000E-01 -1.2709507706052E+00  1.5583809098893E+00 -1.0210150490046E+00
42  4.1000000000000E-01 -1.3335819934459E+00  1.5545128518445E+00 -8.8103285853180E-01
43  4.2000000000000E-01 -1.3787959832577E+00  1.5483960073220E+00 -7.2689492762942E-01
44  4.3000000000000E-01 -1.4067114993602E+00  1.5400192506272E+00 -5.6050081618798E-01
45  4.4000000000000E-01 -1.4176885597274E+00  1.5293730054724E+00 -3.8396396070658E-01
46  4.5000000000000E-01 -1.4123148111826E+00  1.5164505511039E+00 -1.9957282715071E-01
47  4.6000000000000E-01 -1.3913883873976E+00  1.5012494118869E+00 -9.7485040178865E-03
48  4.7000000000000E-01 -1.3558976789201E+00  1.4837727913212E+00  1.8300026810883E-01
49  4.8000000000000E-01 -1.3069984931465E+00  1.4640310093706E+00  3.7612357621646E-01
50  4.9000000000000E-01 -1.2459891229791E+00  1.4420429011438E+00  5.6707724190790E-01
51  5.0000000000000E-01 -1.1742838701690E+00  1.4178371354014E+00  7.5336907745004E-01
52  5.1000000000000E-01 -1.0933855828033E+00  1.3914534130453E+00  9.3260344614953E-01
53  5.2000000000000E-01 -1.0048577662205E+00  1.3629435086099E+00  1.1025231447030E+00
54  5.3000000000000E-01 -9.1029681343584E-01  1.3323721217082E+00  1.2610477134321E+00
55  5.4000000000000E-01 -8.1130487588653E-01  1.2998175102442E+00  1.4063073910588E+00
56  5.5000000000000E-01 -7.0946385925451E-01  1.2653718828094E+00  1.5366720597317E+00
57  5.6000000000000E-01 -6.0631098383346E-01  1.2291415338445E+00  1.6507746687440E+00
58  5.7000000000000E-01 -5.0331629610632E-01  1.1912467116493E+00  1.7475287768303E+00
59  5.8000000000000E-01 -4.0186245973152E-01  1.1518212159678E+00  1.8261400080609E+00
60  5.9000000000000E-01 -3.0322709187247E-01  1.1110117284313E+00  1.8861113702516E+00
61  6.0000000000000E-01 -2.0856784658878E-01  1.0689768854377E+00  1.9272425328527E+00
62  6.1000000000000E-01 -1.1891038256355E-01  1.0258861088923E+00  1.9496232993515E+00
63  6.2000000000000E-01 -3.5139289341497E-02  9.8191821548788E-01  1.9536216338175E+00
64  6.3000000000000E-01  4.2008014152953E-02  9.3725982975234E-01  1.9398667095803E+00
65  6.4000000000000E-01  1.1194445164783E-01  8.9210362985331E-01  1.9092275382209E+00
66  6.5000000000000E-01  1.7423362688813E-01  8.4664645807524E-01  1.8627878079838E+00
67  6.6000000000000E-01  2.2858746784435E-01  8.0108732997510E-01  1.8018176121253E+00
68  6.7000000000000E-01  2.7486136046686E-01  7.5562537749314E-01  1.7277427801309E+00
69  6.8000000000000E-01  3.1304699025687E-01  7.1045776180447E-01  1.6421125393785E+00
70  6.9000000000000E-01  3.4326313998740E-01  6.6577759152062E-01  1.5465662334864E+00
71  7.0000000000000E-01  3.6574471672587E-01  6.2177188108267E-01  1.4427998084524E+00
72  7.1000000000000E-01  3.8083030124614E-01  5.7861958293250E-01  1.3325327512084E+00
73  7.2000000000000E-01  3.8894852836798E-01  5.3648972541209E-01  1.2174761298801E+00
74  7.3000000000000E-01  3.9060361810312E-01  4.9553968642177E-01  1.0993023432084E+00
75  7.4000000000000E-01  3.8636038501905E-01  4.5591363075253E-01  9.7961714034267E-01
76  7.5000000000000E-01  3.7682905712071E-01  4.1774113675941E-01  8.5993442312986E-01
77  7.6000000000000E-01  3.6265023579513E-01  3.8113603570064E-01  7.4165429210919E-01
78  7.7000000000000E-01  3.4448032475169E-01  3.4619548463849E-01  6.2604474494976E-01
79  7.8000000000000E-01  3.2297774798107E-01  3.1299929125412E-01  5.1422738153886E-01
80  7.9000000000000E-01  2.9879026387114E-01  2.8160950620888E-01  4.0716741201235E-01
81  8.0000000000000E-01  2.7254366384376E-01  2.5207029568919E-01  3.0566820056634E-01
82  8.1000000000000E-01  2.4483211807662E-01  2.2440810337052E-01  2.1037050596814E-01
83  8.2000000000000E-01  2.1621039672409E-01  1.9863210706553E-01  1.2175649565477E-01
84  8.3000000000000E-01  1.8718815105840E-01  1.7473497059461E-01  4.0158509901657E-02
85  8.4000000000000E-01  1.5822638352013E-01  1.5269388572561E-01 -3.4227568964375E-02
86  8.5000000000000E-01  1.2973616711737E-01  1.3247189215052E-01 -1.0132463505068E-01
87  8.6000000000000E-01  1.0207959125657E-01  1.1401945517095E-01 -1.6115283703194E-01
88  8.7000000000000E-01  7.5572811255748E-02  9.7276270818026E-02 -2.1380490392266E-01
89  8.8000000000000E-01  5.0490960887770E-02  8.2173256310459E-02 -2.5941926460869E-01
90  8.9000000000000E-01  2.7074549835702E-02  6.8634669837967E-02 -2.9815221251535E-01
91  9.0000000000000E-01  5.5368095623446E-03  5.6580287444798E-02 -3.3015072388892E-01
92  9.1000000000000E-01 -1.3928729400076E-02  4.5927546093603E-02 -3.5552795143607E-01
93  9.2000000000000E-01 -3.1141349380632E-02  3.6593540648995E-02 -3.7434388836698E-01
94  9.3000000000000E-01 -4.5928095043924E-02  2.8496738387061E-02 -3.8659423464457E-01
95  9.4000000000000E-01 -5.8121961175320E-02  2.1558247588027E-02 -3.9221110038695E-01
96  9.5000000000000E-01 -6.7564997357647E-02  1.5702446697890E-02 -3.9107985341700E-01
97  9.6000000000000E-01 -7.4118311903331E-02  1.0856747351032E-02 -3.8307716127825E-01
98  9.7000000000000E-01 -7.7681287551242E-02  6.9502281578190E-03 -3.6813609434519E-01
99  9.8000000000000E-01 -7.8222678627085E-02  3.9108364813196E-03 -3.4634504823132E-01
100  9.9000000000000E-01 -7.5826663645571E-02  1.6608103485131E-03 -3.1808826975593E-01
101  1.0000000000000E+00 -7.0757121214908E-02  1.0994890985023E-04 -2.8423617231798E-01
102  1.0100000000000E+00 -6.3531904071874E-02 -8.5245681520180E-04 -2.4635942773236E-01
103  1.0200000000000E+00 -5.4838287212348E-02 -1.3494312019263E-03 -2.0646972185048E-01
104  1.0300000000000E+00 -4.5354753342161E-02 -1.4978723198489E-03 -1.6649596792322E-01
105  1.0400000000000E+00 -3.5714267457249E-02 -1.4043739481612E-03 -1.2818887949969E-01
106  1.0500000000000E+00 -2.6471529282095E-02 -1.1631743500506E-03 -9.3051873408686E-02
107  1.0600000000000E+00 -1.7970267912140E-02 -8.5099457676904E-04 -6.2053237312480E-02
108  1.0700000000000E+00 -1.0691908134964E-02 -5.3246141077636E-04 -3.6379655460624E-02
109  1.0800000000000E+00 -5.0757720957180E-03 -2.6086326588935E-04 -1.7061269714787E-02
110  1.0900000000000E+00 -1.4441876341356E-03 -7.5396876810001E-05 -4.8060839051546E-03
111  1.1000000000000E+00 -3.7735358372900E-05 -1.9655462338088E-06 -1.2440163981162E-04
112  1.1100000000000E+00 -6.7800818212238E-06 -3.5679874052387E-07 -2.2388130690611E-05
113  1.1200000000000E+00  6.6501031869938E-07  3.4910500783901E-08  2.2045097360009E-06
114  1.13  0.  0.  0.
115  1.14  0.  0.  0.
116  1.15  0.  0.  0.
117  1.16  0.  0.  0.
118  1.17  0.  0.  0.
119  1.18  0.  0.  0.
120  1.19  0.  0.  0.
121  1.20  0.  0.  0.
122  1.21  0.  0.  0.
123  1.22  0.  0.  0.
124  1.23  0.  0.  0.
125  1.24  0.  0.  0.
126  1.25  0.  0.  0.
127  1.26  0.  0.  0.
128  1.27  0.  0.  0.
129  1.28  0.  0.  0.
130  1.29  0.  0.  0.
131  1.30  0.  0.  0.
132  1.31  0.  0.  0.
133  1.32  0.  0.  0.
134  1.33  0.  0.  0.
135  1.34  0.  0.  0.
136  1.35  0.  0.  0.
137  1.36  0.  0.  0.
138  1.37  0.  0.  0.
139  1.38  0.  0.  0.
140  1.39  0.  0.  0.
141  1.40  0.  0.  0.
142  1.41  0.  0.  0.
143  1.42  0.  0.  0.
144  1.43  0.  0.  0.
145  1.44  0.  0.  0.
146  1.45  0.  0.  0.
147  1.46  0.  0.  0.
148  1.47  0.  0.  0.
149  1.48  0.  0.  0.
150  1.49  0.  0.  0.
151  1.50  0.  0.  0.
152  1.51  0.  0.  0.
153  1.52  0.  0.  0.
154  1.53  0.  0.  0.
155  1.54  0.  0.  0.
156  1.55  0.  0.  0.
157  1.56  0.  0.  0.
158  1.57  0.  0.  0.
159  1.58  0.  0.  0.
160  1.59  0.  0.  0.
161  1.60  0.  0.  0.
162  1.61  0.  0.  0.
163  1.62  0.  0.  0.
164  1.63  0.  0.  0.
165  1.64  0.  0.  0.
166  1.65  0.  0.  0.
167  1.66  0.  0.  0.
168  1.67  0.  0.  0.
169  1.68  0.  0.  0.
170  1.69  0.  0.  0.
171  1.70  0.  0.  0.
172  1.71  0.  0.  0.
173  1.72  0.  0.  0.
174  1.73  0.  0.  0.
175  1.74  0.  0.  0.
176  1.75  0.  0.  0.
177  1.76  0.  0.  0.
178  1.77  0.  0.  0.
179  1.78  0.  0.  0.
180  1.79  0.  0.  0.
181  1.80  0.  0.  0.
182  1.81  0.  0.  0.
183  1.82  0.  0.  0.
184  1.83  0.  0.  0.
185  1.84  0.  0.  0.
186  1.85  0.  0.  0.
187  1.86  0.  0.  0.
188  1.87  0.  0.  0.
189  1.88  0.  0.  0.
190  1.89  0.  0.  0.
191  1.90  0.  0.  0.
192  1.91  0.  0.  0.
193  1.92  0.  0.  0.
194  1.93  0.  0.  0.
195  1.94  0.  0.  0.
196  1.95  0.  0.  0.
197  1.96  0.  0.  0.
198  1.97  0.  0.  0.
199  1.98  0.  0.  0.
200  1.99  0.  0.  0.
201  2.00  0.  0.  0.
202  2.01  0.  0.  0.
203  2.02  0.  0.  0.
204  2.03  0.  0.  0.
205  2.04  0.  0.  0.
206  2.05  0.  0.  0.
207  2.06  0.  0.  0.
208  2.07  0.  0.  0.
209  2.08  0.  0.  0.
210  2.09  0.  0.  0.
211  2.10  0.  0.  0.
212  2.11  0.  0.  0.
213  2.12  0.  0.  0.
214  2.13  0.  0.  0.
215  2.14  0.  0.  0.
216  2.15  0.  0.  0.
217  2.16  0.  0.  0.
218  2.17  0.  0.  0.
219  2.18  0.  0.  0.
220  2.19  0.  0.  0.
221  2.20  0.  0.  0.
222  2.21  0.  0.  0.
223  2.22  0.  0.  0.
224  2.23  0.  0.  0.
225  2.24  0.  0.  0.
226  2.25  0.  0.  0.
227  2.26  0.  0.  0.
228  2.27  0.  0.  0.
229  2.28  0.  0.  0.
230  2.29  0.  0.  0.
231  2.30  0.  0.  0.
232  2.31  0.  0.  0.
233  2.32  0.  0.  0.
234  2.33  0.  0.  0.
235  2.34  0.  0.  0.
236  2.35  0.  0.  0.
237  2.36  0.  0.  0.
238  2.37  0.  0.  0.
239  2.38  0.  0.  0.
240  2.39  0.  0.  0.
241  2.40  0.  0.  0.
242  2.41  0.  0.  0.
243  2.42  0.  0.  0.
244  2.43  0.  0.  0.
245  2.44  0.  0.  0.
246  2.45  0.  0.  0.
247  2.46  0.  0.  0.
248  2.47  0.  0.  0.
249  2.48  0.  0.  0.
250  2.49  0.  0.  0.
251  2.50  0.  0.  0.
252  2.51  0.  0.  0.
253  2.52  0.  0.  0.
254  2.53  0.  0.  0.
255  2.54  0.  0.  0.
256  2.55  0.  0.  0.
257  2.56  0.  0.  0.
258  2.57  0.  0.  0.
259  2.58  0.  0.  0.
260  2.59  0.  0.  0.
261  2.60  0.  0.  0.
262  2.61  0.  0.  0.
263  2.62  0.  0.  0.
264  2.63  0.  0.  0.
265  2.64  0.  0.  0.
266  2.65  0.  0.  0.
267  2.66  0.  0.  0.
268  2.67  0.  0.  0.
269  2.68  0.  0.  0.
270  2.69  0.  0.  0.
271  2.70  0.  0.  0.
272  2.71  0.  0.  0.
273  2.72  0.  0.  0.
274  2.73  0.  0.  0.
275  2.74  0.  0.  0.
276  2.75  0.  0.  0.
277  2.76  0.  0.  0.
278  2.77  0.  0.  0.
279  2.78  0.  0.  0.
280  2.79  0.  0.  0.
281  2.80  0.  0.  0.
282  2.81  0.  0.  0.
283  2.82  0.  0.  0.
284  2.83  0.  0.  0.
285  2.84  0.  0.  0.
286  2.85  0.  0.  0.
287  2.86  0.  0.  0.
288  2.87  0.  0.  0.
289  2.88  0.  0.  0.
290  2.89  0.  0.  0.
291  2.90  0.  0.  0.
292  2.91  0.  0.  0.
293  2.92  0.  0.  0.
294  2.93  0.  0.  0.
295  2.94  0.  0.  0.
296  2.95  0.  0.  0.
297  2.96  0.  0.  0.
298  2.97  0.  0.  0.
299  2.98  0.  0.  0.
300  2.99  0.  0.  0.
301  3.00  0.  0.  0.
302  3.01  0.  0.  0.
303  3.02  0.  0.  0.
304  3.03  0.  0.  0.
305  3.04  0.  0.  0.
306  3.05  0.  0.  0.
307  3.06  0.  0.  0.
308  3.07  0.  0.  0.
309  3.08  0.  0.  0.
310  3.09  0.  0.  0.
311  3.10  0.  0.  0.
312  3.11  0.  0.  0.
313  3.12  0.  0.  0.
314  3.13  0.  0.  0.
315  3.14  0.  0.  0.
316  3.15  0.  0.  0.
317  3.16  0.  0.  0.
318  3.17  0.  0.  0.
319  3.18  0.  0.  0.
320  3.19  0.  0.  0.
321  3.20  0.  0.  0.
322  3.21  0.  0.  0.
323  3.22  0.  0.  0.
324  3.23  0.  0.  0.
325  3.24  0.  0.  0.
326  3.25  0.  0.  0.
327  3.26  0.  0.  0.
328  3.27  0.  0.  0.
329  3.28  0.  0.  0.
330  3.29  0.  0.  0.
331  3.30  0.  0.  0.
332  3.31  0.  0.  0.
333  3.32  0.  0.  0.
334  3.33  0.  0.  0.
335  3.34  0.  0.  0.
336  3.35  0.  0.  0.
337  3.36  0.  0.  0.
338  3.37  0.  0.  0.
339  3.38  0.  0.  0.
340  3.39  0.  0.  0.
341  3.40  0.  0.  0.
342  3.41  0.  0.  0.
343  3.42  0.  0.  0.
344  3.43  0.  0.  0.
345  3.44  0.  0.  0.
346  3.45  0.  0.  0.
347  3.46  0.  0.  0.
348  3.47  0.  0.  0.
349  3.48  0.  0.  0.
350  3.49  0.  0.  0.
351  3.50  0.  0.  0.
352  3.51  0.  0.  0.
353  3.52  0.  0.  0.
354  3.53  0.  0.  0.
355  3.54  0.  0.  0.
356  3.55  0.  0.  0.
357  3.56  0.  0.  0.
358  3.57  0.  0.  0.
359  3.58  0.  0.  0.
360  3.59  0.  0.  0.
361  3.60  0.  0.  0.
362  3.61  0.  0.  0.
363  3.62  0.  0.  0.
364  3.63  0.  0.  0.
365  3.64  0.  0.  0.
366  3.65  0.  0.  0.
367  3.66  0.  0.  0.
368  3.67  0.  0.  0.
369  3.68  0.  0.  0.
370  3.69  0.  0.  0.
371  3.70  0.  0.  0.
372  3.71  0.  0.  0.
373  3.72  0.  0.  0.
374  3.73  0.  0.  0.
375  3.74  0.  0.  0.
376  3.75  0.  0.  0.
377  3.76  0.  0.  0.
378  3.77  0.  0.  0.
379  3.78  0.  0.  0.
380  3.79  0.  0.  0.
381  3.80  0.  0.  0.
382  3.81  0.  0.  0.
383  3.82  0.  0.  0.
384  3.83  0.  0.  0.
385  3.84  0.  0.  0.
386  3.85  0.  0.  0.
387  3.86  0.  0.  0.
388  3.87  0.  0.  0.
389  3.88  0.  0.  0.
390  3.89  0.  0.  0.
391  3.90  0.  0.  0.
392  3.91  0.  0.  0.
393  3.92  0.  0.  0.
394  3.93  0.  0.  0.
395  3.94  0.  0.  0.
396  3.95  0.  0.  0.
397  3.96  0.  0.  0.
398  3.97  0.  0.  0.
399  3.98  0.  0.  0.
400  3.99  0.  0.  0.
401  4.00  0.  0.  0.
402  4.01  0.  0.  0.
403  4.02  0.  0.  0.
404  4.03  0.  0.  0.
405  4.04  0.  0.  0.
406  4.05  0.  0.  0.
407  4.06  0.  0.  0.
408  4.07  0.  0.  0.
409  4.08  0.  0.  0.
410  4.09  0.  0.  0.
411  4.10  0.  0.  0.
412  4.11  0.  0.  0.
413  4.12  0.  0.  0.
414  4.13  0.  0.  0.
415  4.14  0.  0.  0.
416  4.15  0.  0.  0.
417  4.16  0.  0.  0.
418  4.17  0.  0.  0.
419  4.18  0.  0.  0.
420  4.19  0.  0.  0.
421  4.20  0.  0.  0.
422  4.21  0.  0.  0.
423  4.22  0.  0.  0.
424  4.23  0.  0.  0.
425  4.24  0.  0.  0.
426  4.25  0.  0.  0.
427  4.26  0.  0.  0.
428  4.27  0.  0.  0.
429  4.28  0.  0.  0.
430  4.29  0.  0.  0.
431  4.30  0.  0.  0.
432  4.31  0.  0.  0.
433  4.32  0.  0.  0.
434  4.33  0.  0.  0.
435  4.34  0.  0.  0.
436  4.35  0.  0.  0.
437  4.36  0.  0.  0.
438  4.37  0.  0.  0.
439  4.38  0.  0.  0.
440  4.39  0.  0.  0.
441  4.40  0.  0.  0.
442  4.41  0.  0.  0.
443  4.42  0.  0.  0.
444  4.43  0.  0.  0.
445  4.44  0.  0.  0.
446  4.45  0.  0.  0.
447  4.46  0.  0.  0.
448  4.47  0.  0.  0.
449  4.48  0.  0.  0.
450  4.49  0.  0.  0.
451  4.50  0.  0.  0.
452  4.51  0.  0.  0.
453  4.52  0.  0.  0.
454  4.53  0.  0.  0.
455  4.54  0.  0.  0.
456  4.55  0.  0.  0.
457  4.56  0.  0.  0.
458  4.57  0.  0.  0.
459  4.58  0.  0.  0.
460  4.59  0.  0.  0.
461  4.60  0.  0.  0.
462  4.61  0.  0.  0.
463  4.62  0.  0.  0.
464  4.63  0.  0.  0.
465  4.64  0.  0.  0.
466  4.65  0.  0.  0.
467  4.66  0.  0.  0.
468  4.67  0.  0.  0.
469  4.68  0.  0.  0.
470  4.69  0.  0.  0.
471  4.70  0.  0.  0.
472  4.71  0.  0.  0.
473  4.72  0.  0.  0.
474  4.73  0.  0.  0.
475  4.74  0.  0.  0.
476  4.75  0.  0.  0.
477  4.76  0.  0.  0.
478  4.77  0.  0.  0.
479  4.78  0.  0.  0.
480  4.79  0.  0.  0.
481  4.80  0.  0.  0.
482  4.81  0.  0.  0.
483  4.82  0.  0.  0.
484  4.83  0.  0.  0.
485  4.84  0.  0.  0.
486  4.85  0.  0.  0.
487  4.86  0.  0.  0.
488  4.87  0.  0.  0.
489  4.88  0.  0.  0.
490  4.89  0.  0.  0.
491  4.90  0.  0.  0.
492  4.91  0.  0.  0.
493  4.92  0.  0.  0.
494  4.93  0.  0.  0.
495  4.94  0.  0.  0.
496  4.95  0.  0.  0.
497  4.96  0.  0.  0.
498  4.97  0.  0.  0.
499  4.98  0.  0.  0.
500  4.99  0.  0.  0.
501  5.00  0.  0.  0.
502  5.01  0.  0.  0.
503  5.02  0.  0.  0.
504  5.03  0.  0.  0.
505  5.04  0.  0.  0.
506  5.05  0.  0.  0.
507  5.06  0.  0.  0.
508  5.07  0.  0.  0.
509  5.08  0.  0.  0.
510  5.09  0.  0.  0.
511  5.10  0.  0.  0.
512  5.11  0.  0.  0.
513  5.12  0.  0.  0.
514  5.13  0.  0.  0.
515  5.14  0.  0.  0.
516  5.15  0.  0.  0.
517  5.16  0.  0.  0.
518  5.17  0.  0.  0.
519  5.18  0.  0.  0.
520  5.19  0.  0.  0.
521  5.20  0.  0.  0.
522  5.21  0.  0.  0.
523  5.22  0.  0.  0.
524  5.23  0.  0.  0.
525  5.24  0.  0.  0.
526  5.25  0.  0.  0.
527  5.26  0.  0.  0.
528  5.27  0.  0.  0.
529  5.28  0.  0.  0.
530  5.29  0.  0.  0.
531  5.30  0.  0.  0.
532  5.31  0.  0.  0.
533  5.32  0.  0.  0.
534  5.33  0.  0.  0.
535  5.34  0.  0.  0.
536  5.35  0.  0.  0.
537  5.36  0.  0.  0.
538  5.37  0.  0.  0.
539  5.38  0.  0.  0.
540  5.39  0.  0.  0.
541  5.40  0.  0.  0.
542  5.41  0.  0.  0.
543  5.42  0.  0.  0.
544  5.43  0.  0.  0.
545  5.44  0.  0.  0.
546  5.45  0.  0.  0.
547  5.46  0.  0.  0.
548  5.47  0.  0.  0.
549  5.48  0.  0.  0.
550  5.49  0.  0.  0.
551  5.50  0.  0.  0.
552  5.51  0.  0.  0.
553  5.52  0.  0.  0.
554  5.53  0.  0.  0.
555  5.54  0.  0.  0.
556  5.55  0.  0.  0.
557  5.56  0.  0.  0.
558  5.57  0.  0.  0.
559  5.58  0.  0.  0.
560  5.59  0.  0.  0.
561  5.60  0.  0.  0.
562  5.61  0.  0.  0.
563  5.62  0.  0.  0.
564  5.63  0.  0.  0.
565  5.64  0.  0.  0.
566  5.65  0.  0.  0.
567  5.66  0.  0.  0.
568  5.67  0.  0.  0.
569  5.68  0.  0.  0.
570  5.69  0.  0.  0.
571  5.70  0.  0.  0.
572  5.71  0.  0.  0.
573  5.72  0.  0.  0.
574  5.73  0.  0.  0.
575  5.74  0.  0.  0.
576  5.75  0.  0.  0.
577  5.76  0.  0.  0.
578  5.77  0.  0.  0.
579  5.78  0.  0.  0.
580  5.79  0.  0.  0.
581  5.80  0.  0.  0.
582  5.81  0.  0.  0.
583  5.82  0.  0.  0.
584  5.83  0.  0.  0.
585  5.84  0.  0.  0.
586  5.85  0.  0.  0.
587  5.86  0.  0.  0.
588  5.87  0.  0.  0.
589  5.88  0.  0.  0.
590  5.89  0.  0.  0.
591  5.90  0.  0.  0.
592  5.91  0.  0.  0.
593  5.92  0.  0.  0.
594  5.93  0.  0.  0.
595  5.94  0.  0.  0.
596  5.95  0.  0.  0.
597  5.96  0.  0.  0.
598  5.97  0.  0.  0.
599  5.98  0.  0.  0.
600  5.99  0.  0.  0.
1                         9.8591775263181E+00 -6.2186713290471E+00
1  0.0000000000000E+00  6.0146440605813E-08 -6.0168054566434E-09
2  1.0000000000000E-02  8.5728291824371E-03  1.5073779068909E-03
3  2.0000000000000E-02  3.4151477216762E-02  6.0304578259451E-03
4  3.0000000000000E-02  7.6318609300285E-02  1.3571923473211E-02
5  4.0000000000000E-02  1.3438591249155E-01  2.4135734996004E-02
6  5.0000000000000E-02  2.0740484460780E-01  3.7726372262427E-02
7  6.0000000000000E-02  2.9418144710195E-01  5.4347799935375E-02
8  7.0000000000000E-02  3.9329499055088E-01  7.4002178224434E-02
9  8.0000000000000E-02  5.0312016124095E-01  9.6688349225914E-02
10  9.0000000000000E-02  6.2185244155758E-01  1.2240013419184E-01
11  1.0000000000000E-01  7.4753628633524E-01  1.5112448180531E-01
12  1.1000000000000E-01  8.7809565279205E-01  1.8283951148812E-01
13  1.2000000000000E-01  1.0113664038760E+00  2.1751249884680E-01
14  1.3000000000000E-01  1.1451300744122E+00  2.5509785251273E-01
15  1.4000000000000E-01  1.2771484668899E+00  2.9553513280420E-01
16  1.5000000000000E-01  1.4051985294801E+00  3.3874716280697E-01
17  1.6000000000000E-01  1.5271069632327E+00  3.8463828162573E-01
18  1.7000000000000E-01  1.6407840085345E+00  4.3309278771452E-01
19  1.8000000000000E-01  1.7442558728678E+00  4.8397361737799E-01
20  1.9000000000000E-01  1.8356952825889E+00  5.3712129979771E-01
21  2.0000000000000E-01  1.9134496706276E+00  5.9235322534423E-01
22  2.1000000000000E-01  1.9760665493046E+00  6.4946325856950E-01
23  2.2000000000000E-01  2.0223156623791E+00  7.0822172123334E-01
24  2.3000000000000E-01  2.0512075623093E+00  7.6837576411396E-01
25  2.4000000000000E-01  2.0620083167777E+00  8.2965013930693E-01
26  2.5000000000000E-01  2.0542501118889E+00  8.9174837736286E-01
27  2.6000000000000E-01  2.0277375870973E+00  9.5435436608667E-01
28  2.7000000000000E-01  1.9825498077609E+00  1.0171343202641E+00
29  2.8000000000000E-01  1.9190378540727E+00  1.0797391241362E+00
30  2.9000000000000E-01  1.8378180787475E+00  1.1418070212484E+00
31  3.0000000000000E-01  1.7397611589748E+00  1.2029666195019E+00
32  3.1000000000000E-01  1.6259771394810E+00  1.2628401729477E+00
33  3.2000000000000E-01  1.4977967317988E+00  1.3210470962237E+00
34  3.3000000000000E-01  1.3567491987624E+00  1.3772076626426E+00
35  3.4000000000000E-01  1.2045372116251E+00  1.4309468328841E+00
36  3.5000000000000E-01  1.0430091189313E+00  1.4818981581221E+00
37  3.6000000000000E-01  8.7412911033171E-01  1.5297076992712E+00
38  3.7000000000000E-01  6.9994579404971E-01  1.5740379029263E+00
39  3.8000000000000E-01  5.2255973292931E-01  1.6145713745007E+00
40  3.9000000000000E-01  3.4409050037211E-01  1.6510144900678E+00
41  4.0000000000000E-01  1.6664382360702E-01  1.6831007904383E+00
42  4.1000000000000E-01 -7.7206225524305E-03  1.7105941040459E+00
43  4.2000000000000E-01 -1.7702022300761E-01  1.7332913491993E+00
44  4.3000000000000E-01 -3.3937870716248E-01  1.7510249711198E+00
45  4.4000000000000E-01 -4.9305322227656E-01  1.7636649748359E+00
46  4.5000000000000E-01 -6.3645875023103E-01  1.7711205213346E+00
47  4.6000000000000E-01 -7.6818947462848E-01  1.7733410612715E+00
48  4.7000000000000E-01 -8.8703676451936E-01  1.7703169878705E+00
49  4.8000000000000E-01 -9.9200350655845E-01  1.7620797982876E+00
50  4.9000000000000E-01 -1.0823145877468E+00  1.7487017605057E+00
51  5.0000000000000E-01 -1.1574234047005E+00  1.7302950906467E+00
52  5.1000000000000E-01 -1.2170143511209E+00  1.7070106532752E+00
53  5.2000000000000E-01 -1.2610013112875E+00  1.6790362046924E+00
54  5.3000000000000E-01 -1.2895222624011E+00  1.6465942062426E+00
55  5.4000000000000E-01 -1.3029301609490E+00  1.6099392411556E+00
56  5.5000000000000E-01 -1.3017803564613E+00  1.5693550743057E+00
57  5.6000000000000E-01 -1.2868148387013E+00  1.5251513993872E+00
58  5.7000000000000E-01 -1.2589436802104E+00  1.4776603223015E+00
59  5.8000000000000E-01 -1.2192240840934E+00  1.4272326329443E+00
60  5.9000000000000E-01 -1.1688374860476E+00  1.3742339200390E+00
61  6.0000000000000E-01 -1.1090651891602E+00  1.3190405851346E+00
62  6.1000000000000E-01 -1.0412630293965E+00  1.2620358123759E+00
63  6.2000000000000E-01 -9.6683557867820E-01  1.2036055501618E+00
64  6.3000000000000E-01 -8.8721039093293E-01  1.1441345593628E+00
65  6.4000000000000E-01 -8.0381278465338E-01  1.0840025804180E+00
66  6.5000000000000E-01 -7.1804163372856E-01  1.0235806684401E+00
67  6.6000000000000E-01 -6.3124660720818E-01  9.6322774150119E-01
68  6.7000000000000E-01 -5.4470725904878E-01  9.0328738264750E-01
69  6.8000000000000E-01 -4.5961432175121E-01  8.4408493100733E-01
70  6.9000000000000E-01 -3.7705350427129E-01  7.8592489172073E-01
71  7.0000000000000E-01 -2.9799203593419E-01  7.2908868846364E-01
72  7.1000000000000E-01 -2.2326813564436E-01  6.7383277618311E-01
73  7.2000000000000E-01 -1.5358352086826E-01  6.2038712543687E-01
74  7.3000000000000E-01 -8.9499005077156E-02  5.6895408356418E-01
75  7.4000000000000E-01 -3.1433166970552E-02  5.1970761193042E-01
76  7.5000000000000E-01  2.0335988807092E-02  4.7279289280133E-01
77  7.6000000000000E-01  6.5666520359443E-02  4.2832629412172E-01
78  7.7000000000000E-01  1.0454538403492E-01  3.8639567569414E-01
79  7.8000000000000E-01  1.3707886552322E-01  3.4706101605986E-01
80  7.9000000000000E-01  1.6348090085495E-01  3.1035533584460E-01
81  8.0000000000000E-01  1.8405962061312E-01  2.7628589049973E-01
82  8.1000000000000E-01  1.9920248274765E-01  2.4483560328146E-01
83  8.2000000000000E-01  2.0936038434364E-01  2.1596470798620E-01
84  8.3000000000000E-01  2.1503116052466E-01  1.8961257040231E-01
85  8.4000000000000E-01  2.1674288957257E-01  1.6569965763411E-01
86  8.5000000000000E-01  2.1503742770116E-01  1.4412962537319E-01
87  8.6000000000000E-01  2.1045459528962E-01  1.2479149479334E-01
88  8.7000000000000E-01  2.0351742947087E-01  1.0756189297084E-01
89  8.8000000000000E-01  1.9471890661634E-01  9.2307333516765E-02
90  8.9000000000000E-01  1.8451052339461E-01  7.8886517375563E-02
91  9.0000000000000E-01  1.7329310771521E-01  6.7152637412745E-02
92  9.1000000000000E-01  1.6141021204339E-01  5.6955674398513E-02
93  9.2000000000000E-01  1.4914442234761E-01  4.8144676205069E-02
94  9.3000000000000E-01  1.3671689735504E-01  4.0570016386401E-02
95  9.4000000000000E-01  1.2429043583863E-01  3.4085632716424E-02
96  9.5000000000000E-01  1.1197635526375E-01  2.8551250645052E-02
97  9.6000000000000E-01  9.9845454115101E-02  2.3834600921287E-02
98  9.7000000000000E-01  8.7943323327010E-02  1.9813644762975E-02
99  9.8000000000000E-01  7.6310270048369E-02  1.6378823872952E-02
100  9.9000000000000E-01  6.5006128714767E-02  1.3435357025504E-02
101  1.0000000000000E+00  5.4140144088919E-02  1.0905599709892E-02
102  1.0100000000000E+00  4.3900631521871E-02  8.7309988024806E-03
103  1.0200000000000E+00  3.4508567100062E-02  6.8671411410074E-03
104  1.0300000000000E+00  2.6137832056039E-02  5.2765307881762E-03
105  1.0400000000000E+00  1.8908180349348E-02  3.9282070129428E-03
106  1.0500000000000E+00  1.2882220933634E-02  2.7963543550395E-03
107  1.0600000000000E+00  8.0410311952830E-03  1.8500339381148E-03
108  1.0700000000000E+00  4.3971709438236E-03  1.0873630828447E-03
109  1.0800000000000E+00  1.9149941961150E-03  5.1639534868195E-04
110  1.0900000000000E+00  4.9820363491309E-04  1.4871782398238E-04
111  1.1000000000000E+00  1.1743859925346E-05  3.9967617282401E-06
112  1.1100000000000E+00  2.1384667078161E-06  7.0969053818519E-07
113  1.1200000000000E+00 -2.1900333295535E-07 -6.9002081776111E-08
114  1.13  0.  0.
115  1.14  0.  0.
116  1.15  0.  0.
117  1.16  0.  0.
118  1.17  0.  0.
119  1.18  0.  0.
120  1.19  0.  0.
121  1.20  0.  0.
122  1.21  0.  0.
123  1.22  0.  0.
124  1.23  0.  0.
125  1.24  0.  0.
126  1.25  0.  0.
127  1.26  0.  0.
128  1.27  0.  0.
129  1.28  0.  0.
130  1.29  0.  0.
131  1.30  0.  0.
132  1.31  0.  0.
133  1.32  0.  0.
134  1.33  0.  0.
135  1.34  0.  0.
136  1.35  0.  0.
137  1.36  0.  0.
138  1.37  0.  0.
139  1.38  0.  0.
140  1.39  0.  0.
141  1.40  0.  0.
142  1.41  0.  0.
143  1.42  0.  0.
144  1.43  0.  0.
145  1.44  0.  0.
146  1.45  0.  0.
147  1.46  0.  0.
148  1.47  0.  0.
149  1.48  0.  0.
150  1.49  0.  0.
151  1.50  0.  0.
152  1.51  0.  0.
153  1.52  0.  0.
154  1.53  0.  0.
155  1.54  0.  0.
156  1.55  0.  0.
157  1.56  0.  0.
158  1.57  0.  0.
159  1.58  0.  0.
160  1.59  0.  0.
161  1.60  0.  0.
162  1.61  0.  0.
163  1.62  0.  0.
164  1.63  0.  0.
165  1.64  0.  0.
166  1.65  0.  0.
167  1.66  0.  0.
168  1.67  0.  0.
169  1.68  0.  0.
170  1.69  0.  0.
171  1.70  0.  0.
172  1.71  0.  0.
173  1.72  0.  0.
174  1.73  0.  0.
175  1.74  0.  0.
176  1.75  0.  0.
177  1.76  0.  0.
178  1.77  0.  0.
179  1.78  0.  0.
180  1.79  0.  0.
181  1.80  0.  0.
182  1.81  0.  0.
183  1.82  0.  0.
184  1.83  0.  0.
185  1.84  0.  0.
186  1.85  0.  0.
187  1.86  0.  0.
188  1.87  0.  0.
189  1.88  0.  0.
190  1.89  0.  0.
191  1.90  0.  0.
192  1.91  0.  0.
193  1.92  0.  0.
194  1.93  0.  0.
195  1.94  0.  0.
196  1.95  0.  0.
197  1.96  0.  0.